 Entering Gaussian System, Link 0=/programs/g09/g09
 Input=/scratch2/Wise/temp/temp_05192016/temp/CTYR_q.com
 Output=/scratch2/Wise/temp/temp_05192016/temp/CTYR_q.log
 Initial command:
 /programs/g09/l1.exe "/tmp/Wise/CTYR_q/Gau-25666.inp" -scrdir="/tmp/Wise/CTYR_q/"
 Entering Link 1 = /programs/g09/l1.exe PID=     25667.
  
 Copyright (c) 1988,1990,1992,1993,1995,1998,2003,2009,2013,
            Gaussian, Inc.  All Rights Reserved.
  
 This is part of the Gaussian(R) 09 program.  It is based on
 the Gaussian(R) 03 system (copyright 2003, Gaussian, Inc.),
 the Gaussian(R) 98 system (copyright 1998, Gaussian, Inc.),
 the Gaussian(R) 94 system (copyright 1995, Gaussian, Inc.),
 the Gaussian 92(TM) system (copyright 1992, Gaussian, Inc.),
 the Gaussian 90(TM) system (copyright 1990, Gaussian, Inc.),
 the Gaussian 88(TM) system (copyright 1988, Gaussian, Inc.),
 the Gaussian 86(TM) system (copyright 1986, Carnegie Mellon
 University), and the Gaussian 82(TM) system (copyright 1983,
 Carnegie Mellon University). Gaussian is a federally registered
 trademark of Gaussian, Inc.
  
 This software contains proprietary and confidential information,
 including trade secrets, belonging to Gaussian, Inc.
  
 This software is provided under written license and may be
 used, copied, transmitted, or stored only in accord with that
 written license.
  
 The following legend is applicable only to US Government
 contracts under FAR:
  
                    RESTRICTED RIGHTS LEGEND
  
 Use, reproduction and disclosure by the US Government is
 subject to restrictions as set forth in subparagraphs (a)
 and (c) of the Commercial Computer Software - Restricted
 Rights clause in FAR 52.227-19.
  
 Gaussian, Inc.
 340 Quinnipiac St., Bldg. 40, Wallingford CT 06492
  
  
 ---------------------------------------------------------------
 Warning -- This program may not be used in any manner that
 competes with the business of Gaussian, Inc. or will provide
 assistance to any competitor of Gaussian, Inc.  The licensee
 of this program is prohibited from giving any competitor of
 Gaussian, Inc. access to this program.  By using this program,
 the user acknowledges that Gaussian, Inc. is engaged in the
 business of creating and licensing software in the field of
 computational chemistry and represents and warrants to the
 licensee that it is not a competitor of Gaussian, Inc. and that
 it will not use this program in any manner prohibited above.
 ---------------------------------------------------------------
  

 Cite this work as:
 Gaussian 09, Revision D.01,
 M. J. Frisch, G. W. Trucks, H. B. Schlegel, G. E. Scuseria, 
 M. A. Robb, J. R. Cheeseman, G. Scalmani, V. Barone, B. Mennucci, 
 G. A. Petersson, H. Nakatsuji, M. Caricato, X. Li, H. P. Hratchian, 
 A. F. Izmaylov, J. Bloino, G. Zheng, J. L. Sonnenberg, M. Hada, 
 M. Ehara, K. Toyota, R. Fukuda, J. Hasegawa, M. Ishida, T. Nakajima, 
 Y. Honda, O. Kitao, H. Nakai, T. Vreven, J. A. Montgomery, Jr., 
 J. E. Peralta, F. Ogliaro, M. Bearpark, J. J. Heyd, E. Brothers, 
 K. N. Kudin, V. N. Staroverov, T. Keith, R. Kobayashi, J. Normand, 
 K. Raghavachari, A. Rendell, J. C. Burant, S. S. Iyengar, J. Tomasi, 
 M. Cossi, N. Rega, J. M. Millam, M. Klene, J. E. Knox, J. B. Cross, 
 V. Bakken, C. Adamo, J. Jaramillo, R. Gomperts, R. E. Stratmann, 
 O. Yazyev, A. J. Austin, R. Cammi, C. Pomelli, J. W. Ochterski, 
 R. L. Martin, K. Morokuma, V. G. Zakrzewski, G. A. Voth, 
 P. Salvador, J. J. Dannenberg, S. Dapprich, A. D. Daniels, 
 O. Farkas, J. B. Foresman, J. V. Ortiz, J. Cioslowski, 
 and D. J. Fox, Gaussian, Inc., Wallingford CT, 2013.
 
 ******************************************
 Gaussian 09:  AM64L-G09RevD.01 24-Apr-2013
                18-May-2016 
 ******************************************
 %mem=8GB
 %nproc=8
 Will use up to    8 processors via shared memory.
 --------------------------------------------
 # HF/6-31G* scf=tight iop(6/33=2) pop=chelpg
 --------------------------------------------
 1/38=1/1;
 2/12=2,17=6,18=5,40=1/2;
 3/5=1,6=6,7=1,11=9,16=1,25=1,30=1/1,2,3;
 4//1;
 5/5=2,32=2,38=5/2;
 6/7=2,8=2,9=2,10=2,15=8,20=3,28=1,33=2/1,2;
 99/5=1,9=1/99;
 -------------------
 Title Card Required
 -------------------
 Symbolic Z-matrix:
 Charge = -1 Multiplicity = 1
 C
 H                    1    B1
 H                    1    B2       2    A1
 H                    1    B3       3    A2       2    D1       0
 C                    1    B4       3    A3       2    D2       0
 O                    5    B5       1    A4       3    D3       0
 N                    5    B6       1    A5       6    D4       0
 H                    7    B7       5    A6       1    D5       0
 C                    7    B8       5    A7       1    D6       0
 H                    9    B9       7    A8       5    D7       0
 C                    9    B10      7    A9       5    D8       0
 H                    11   B11      9    A10      7    D9       0
 H                    11   B12      9    A11      7    D10      0
 C                    11   B13      9    A12      7    D11      0
 C                    14   B14      11   A13      9    D12      0
 H                    15   B15      14   A14      11   D13      0
 C                    15   B16      14   A15      11   D14      0
 H                    17   B17      15   A16      14   D15      0
 C                    17   B18      15   A17      14   D16      0
 O                    19   B19      17   A18      15   D17      0
 C                    20   B20      19   A19      17   D18      0
 H                    21   B21      20   A20      19   D19      0
 H                    21   B22      20   A21      19   D20      0
 H                    21   B23      20   A22      19   D21      0
 C                    19   B24      17   A23      15   D22      0
 H                    25   B25      19   A24      17   D23      0
 C                    25   B26      19   A25      17   D24      0
 H                    27   B27      25   A26      19   D25      0
 C                    9    B28      7    A27      5    D26      0
 O                    29   B29      9    A28      7    D27      0
 O                    29   B30      9    A29      7    D28      0
       Variables:
  B1                    1.08474                  
  B2                    1.08339                  
  B3                    1.08409                  
  B4                    1.52068                  
  B5                    1.21238                  
  B6                    1.33039                  
  B7                    0.99943                  
  B8                    1.45288                  
  B9                    1.08542                  
  B10                   1.54822                  
  B11                   1.08204                  
  B12                   1.08382                  
  B13                   1.51625                  
  B14                   1.38667                  
  B15                   1.07332                  
  B16                   1.39069                  
  B17                   1.0738                   
  B18                   1.38485                  
  B19                   1.36369                  
  B20                   1.39153                  
  B21                   1.08597                  
  B22                   1.0819                   
  B23                   1.08633                  
  B24                   1.38793                  
  B25                   1.07534                  
  B26                   1.38179                  
  B27                   1.07576                  
  B28                   1.56482                  
  B29                   1.23549                  
  B30                   1.2292                   
  A1                  109.09548                  
  A2                  109.31201                  
  A3                  113.44959                  
  A4                  119.59278                  
  A5                  115.41058                  
  A6                  121.18479                  
  A7                  125.64063                  
  A8                  108.76594                  
  A9                  112.15799                  
  A10                 108.32582                  
  A11                 108.89713                  
  A12                 114.70638                  
  A13                 121.95193                  
  A14                 118.47468                  
  A15                 121.53161                  
  A16                 118.85206                  
  A17                 119.88847                  
  A18                 124.48158                  
  A19                 119.04413                  
  A20                 111.76499                  
  A21                 106.50893                  
  A22                 111.80605                  
  A23                 119.42965                  
  A24                 118.81586                  
  A25                 119.98654                  
  A26                 119.35501                  
  A27                 107.33638                  
  A28                 115.65444                  
  A29                 114.92388                  
  D1                  117.34587                  
  D2                 -121.14746                  
  D3                 -176.23447                  
  D4                  179.49296                  
  D5                   10.035                    
  D6                  172.64599                  
  D7                  -50.83537                  
  D8                   69.21893                  
  D9                  -18.76994                  
  D10                  97.7767                   
  D11                -139.38804                  
  D12                 -79.71194                  
  D13                   3.01824                  
  D14                -179.0327                   
  D15                -179.95652                  
  D16                  -0.43566                  
  D17                 179.74082                  
  D18                   2.49644                  
  D19                  59.78425                  
  D20                 178.71078                  
  D21                 -62.45994                  
  D22                  -0.41387                  
  D23                -179.22023                  
  D24                   0.50598                  
  D25                -178.72385                  
  D26                -167.01741                  
  D27                   9.81196                  
  D28                -170.33991                  
 
                          Input orientation:                          
 ---------------------------------------------------------------------
 Center     Atomic      Atomic             Coordinates (Angstroms)
 Number     Number       Type             X           Y           Z
 ---------------------------------------------------------------------
      1          6           0        0.000000    0.000000    0.000000
      2          1           0        0.000000    0.000000    1.084736
      3          1           0        1.023773    0.000000   -0.354423
      4          1           0       -0.492542    0.908762   -0.326820
      5          6           0       -0.807910   -1.193970   -0.483924
      6          8           0       -1.986521   -1.269971   -0.210113
      7          7           0       -0.132775   -2.086127   -1.203782
      8          1           0        0.862900   -2.043585   -1.279105
      9          6           0       -0.638868   -3.373824   -1.647137
     10          1           0       -1.058336   -3.896836   -0.793533
     11          6           0       -1.740528   -3.228506   -2.725190
     12          1           0       -2.129110   -2.219625   -2.680696
     13          1           0       -1.293847   -3.361525   -3.703687
     14          6           0       -2.906975   -4.185080   -2.572277
     15          6           0       -2.833562   -5.504808   -2.991527
     16          1           0       -1.904345   -5.863872   -3.391072
     17          6           0       -3.915526   -6.369332   -2.865110
     18          1           0       -3.811057   -7.383076   -3.203431
     19          6           0       -5.097174   -5.918128   -2.301249
     20          8           0       -6.215013   -6.681672   -2.136703
     21          6           0       -6.177771   -8.022535   -2.506920
     22          1           0       -5.419135   -8.571266   -1.956739
     23          1           0       -7.150234   -8.433773   -2.270882
     24          1           0       -5.994103   -8.142456   -3.570873
     25          6           0       -5.184326   -4.605253   -1.859539
     26          1           0       -6.102316   -4.268913   -1.411731
     27          6           0       -4.101036   -3.758043   -1.993904
     28          1           0       -4.172700   -2.748481   -1.629346
     29          6           0        0.584666   -4.204949   -2.157884
     30          8           0        1.696509   -3.722114   -1.918895
     31          8           0        0.295529   -5.249175   -2.738345
 ---------------------------------------------------------------------
                    Distance matrix (angstroms):
                    1          2          3          4          5
     1  C    0.000000
     2  H    1.084736   0.000000
     3  H    1.083387   1.766151   0.000000
     4  H    1.084093   1.749554   1.768000   0.000000
     5  C    1.520679   2.130488   2.190296   2.132046   0.000000
     6  O    2.367117   2.689931   3.270401   2.644328   1.212383
     7  N    2.412187   3.099496   2.531984   3.141315   1.330394
     8  H    2.560653   3.241694   2.248812   3.385325   2.036116
     9  C    3.808399   4.387935   3.977207   4.483882   2.476572
    10  H    4.115227   4.453459   4.439969   4.861246   2.732042
    11  C    4.569392   5.288499   4.866739   4.942331   3.167394
    12  H    4.079948   4.861926   4.503216   4.243335   2.761041
    13  H    5.166351   5.991902   5.280983   5.502787   3.911688
    14  C    5.708065   6.272092   6.155043   6.067848   4.208804
    15  C    6.876134   7.412685   7.220544   7.329046   5.382812
    16  H    7.036397   7.618686   7.223580   7.566465   5.609070
    17  C    8.006784   8.455828   8.442074   8.433883   6.489353
    18  H    8.904826   9.349992   9.273739   9.383070   7.397273
    19  C    8.142553   8.512950   8.733863   8.468024   6.634616
    20  O    9.372119   9.677231  10.011058   9.676623   7.879296
    21  C   10.431231  10.743645  10.993478  10.809382   8.919486
    22  H   10.327752  10.586982  10.841821  10.807353   8.823666
    23  H   11.287660  11.554849  11.900241  11.635600   9.789435
    24  H   10.722872  11.131197  11.220326  11.077707   9.203658
    25  C    7.179379   7.533548   7.874911   7.400434   5.716834
    26  H    7.579899   7.854567   8.373928   7.710701   6.192482
    27  C    5.909064   6.357626   6.563114   6.130210   4.438377
    28  H    5.255506   5.686107   6.015223   5.349352   3.879473
    29  C    4.762342   5.342099   4.596400   5.537438   3.715832
    30  O    4.518234   5.074848   4.093200   5.363923   3.837027
    31  O    5.927876   6.500548   5.810961   6.660083   4.769139
                    6          7          8          9         10
     6  O    0.000000
     7  N    2.256073   0.000000
     8  H    3.140132   0.999426   0.000000
     9  C    2.882257   1.452879   2.039679   0.000000
    10  H    2.846458   2.074520   2.713202   1.085419   0.000000
    11  C    3.197184   2.490899   3.205158   1.548215   2.154843
    12  H    2.650652   2.486855   3.308711   2.149708   2.742440
    13  H    4.130309   3.037145   3.502445   2.158367   2.968336
    14  C    3.863277   3.738257   4.524406   2.580374   2.581566
    15  C    5.136884   4.709316   5.345679   3.341431   3.250874
    16  H    5.588307   4.711056   5.168427   3.292883   3.366329
    17  C    6.064120   5.951055   6.637835   4.603587   4.309084
    18  H    7.046909   6.751742   7.352488   5.344056   5.053608
    19  C    5.971128   6.366625   7.181876   5.174731   4.761412
    20  O    7.132909   7.680038   8.505538   6.501917   6.012548
    21  C    8.272788   8.572111   9.318070   7.282114   6.794535
    22  H    8.254844   8.400570   9.084810   7.068254   6.497686
    23  H    9.068117   9.522396  10.297011   8.269826   7.738061
    24  H    8.636346   8.754279   9.458696   7.424227   7.078185
    25  C    4.906187   5.682797   6.593026   4.714098   4.319956
    26  H    5.232333   6.359498   7.313270   5.541288   5.095326
    27  C    3.720697   4.377978   5.300092   3.500640   3.273863
    28  H    2.996596   4.115922   5.096746   3.588780   3.422947
    29  C    4.361068   2.431962   2.349716   1.564821   2.157740
    30  O    4.743170   2.556193   1.980328   2.376792   2.980963
    31  O    5.237726   3.541638   3.567506   2.362366   2.728382
                   11         12         13         14         15
    11  C    0.000000
    12  H    1.082043   0.000000
    13  H    1.083824   1.745883   0.000000
    14  C    1.516250   2.116563   2.135536   0.000000
    15  C    2.539135   3.374210   2.733415   1.386666   0.000000
    16  H    2.723121   3.719635   2.594644   2.119914   1.073317
    17  C    3.822955   4.521655   4.077170   2.423610   1.390694
    18  H    4.666504   5.455586   4.770689   3.382736   2.127978
    19  C    4.322137   4.757343   4.792530   2.806044   2.402343
    20  O    5.682577   6.074569   6.139763   4.167231   3.681024
    21  C    6.536014   7.077826   6.856382   5.042662   4.213968
    22  H    6.532056   7.189696   6.871043   5.092000   4.142359
    23  H    7.521045   7.999704   7.878953   6.012277   5.266101
    24  H    6.554005   7.128149   6.705770   5.117458   4.157144
    25  C    3.808481   3.962306   4.481469   2.422987   2.759833
    26  H    4.672560   4.647173   5.403497   3.400602   3.835093
    27  C    2.527289   2.593629   3.310724   1.393793   2.377588
    28  H    2.710491   2.358238   3.600903   2.134243   3.353530
    29  C    2.584918   3.402855   2.574817   3.516201   3.750850
    30  O    3.564685   4.180093   3.501105   4.672613   4.984986
    31  O    2.868589   3.880770   2.649760   3.378744   3.149709
                   16         17         18         19         20
    16  H    0.000000
    17  C    2.139387   0.000000
    18  H    2.445147   1.073802   0.000000
    19  C    3.374139   1.384852   2.148045   0.000000
    20  O    4.563343   2.432236   2.721926   1.363686   0.000000
    21  C    4.868647   2.824736   2.548601   2.374557   1.391533
    22  H    4.662729   2.816823   2.356257   2.694715   2.058246
    23  H    5.947989   3.883086   3.622666   3.247221   1.990603
    24  H    4.685125   2.821799   2.340376   2.713680   2.059013
    25  C    3.832491   2.394368   3.377604   1.387927   2.334662
    26  H    4.907611   3.362457   4.261228   2.126373   2.521842
    27  C    3.348439   2.759029   3.832480   2.398482   3.610663
    28  H    4.237307   3.834555   4.907952   3.369387   4.460767
    29  C    3.235420   5.043456   5.524132   5.936230   7.236728
    30  O    4.440785   6.276784   6.736910   7.150021   8.449769
    31  O    2.375573   4.359335   4.651224   5.451586   6.693368
                   21         22         23         24         25
    21  C    0.000000
    22  H    1.085971   0.000000
    23  H    1.081903   1.764736   0.000000
    24  H    1.086329   1.766322   1.763939   0.000000
    25  C    3.617161   3.974146   4.323373   4.012008   0.000000
    26  H    3.910858   4.390218   4.379763   4.435982   1.075343
    27  C    4.770944   4.990579   5.588986   5.029275   1.381787
    28  H    5.710174   5.963691   6.449792   6.015148   2.126965
    29  C    7.773438   7.426358   8.816143   7.796197   5.790554
    30  O    8.991311   8.610928  10.029381   9.022968   6.937531
    31  O    7.046183   6.656168   8.111693   6.973066   5.587105
                   26         27         28         29         30
    26  H    0.000000
    27  C    2.145934   0.000000
    28  H    2.466270   1.075757   0.000000
    29  C    6.728786   4.709821   5.003317   0.000000
    30  O    7.834403   5.798142   5.956460   1.235492   0.000000
    31  O    6.607060   4.701857   5.239124   1.229204   2.228488
                   31
    31  O    0.000000
 Stoichiometry    C12H14NO4(1-)
 Framework group  C1[X(C12H14NO4)]
 Deg. of freedom    87
 Full point group                 C1      NOp   1
 Largest Abelian subgroup         C1      NOp   1
 Largest concise Abelian subgroup C1      NOp   1
                         Standard orientation:                         
 ---------------------------------------------------------------------
 Center     Atomic      Atomic             Coordinates (Angstroms)
 Number     Number       Type             X           Y           Z
 ---------------------------------------------------------------------
      1          6           0        4.667906   -1.844915   -0.248511
      2          1           0        4.878814   -2.284103   -1.217678
      3          1           0        5.357827   -1.028552   -0.071629
      4          1           0        4.823160   -2.614006    0.499589
      5          6           0        3.207862   -1.420974   -0.216726
      6          8           0        2.338669   -2.258151   -0.332964
      7          7           0        2.995108   -0.118652   -0.047487
      8          1           0        3.745802    0.539198   -0.097929
      9          6           0        1.706443    0.546812   -0.133262
     10          1           0        1.225464    0.257989   -1.062442
     11          6           0        0.773638    0.166861    1.042528
     12          1           0        1.142470   -0.747886    1.487520
     13          1           0        0.829007    0.941170    1.798870
     14          6           0       -0.675810   -0.053597    0.655858
     15          6           0       -1.550832    1.003343    0.455718
     16          1           0       -1.170467    2.004085    0.532185
     17          6           0       -2.883670    0.790624    0.120573
     18          1           0       -3.523344    1.640696   -0.025186
     19          6           0       -3.359991   -0.501126   -0.028812
     20          8           0       -4.647127   -0.817055   -0.349917
     21          6           0       -5.553005    0.209696   -0.597971
     22          1           0       -5.236280    0.834370   -1.427911
     23          1           0       -6.492131   -0.263591   -0.852051
     24          1           0       -5.700784    0.837416    0.276237
     25          6           0       -2.495189   -1.571833    0.150204
     26          1           0       -2.872448   -2.570291    0.019360
     27          6           0       -1.174038   -1.344018    0.484860
     28          1           0       -0.507634   -2.180494    0.600909
     29          6           0        1.980039    2.086100   -0.199615
     30          8           0        3.160837    2.413150   -0.358346
     31          8           0        0.981956    2.794894   -0.088335
 ---------------------------------------------------------------------
 Rotational constants (GHZ):      0.8591638      0.2290022      0.1872501
 Standard basis: 6-31G(d) (6D, 7F)
 There are   283 symmetry adapted cartesian basis functions of A   symmetry.
 There are   283 symmetry adapted basis functions of A   symmetry.
   283 basis functions,   532 primitive gaussians,   283 cartesian basis functions
    63 alpha electrons       63 beta electrons
       nuclear repulsion energy      1171.8253301729 Hartrees.
 NAtoms=   31 NActive=   31 NUniq=   31 SFac= 1.00D+00 NAtFMM=   60 NAOKFM=F Big=F
 Integral buffers will be    131072 words long.
 Raffenetti 1 integral format.
 Two-electron integral symmetry is turned on.
 One-electron integrals computed using PRISM.
 NBasis=   283 RedAO= T EigKep=  3.94D-04  NBF=   283
 NBsUse=   283 1.00D-06 EigRej= -1.00D+00 NBFU=   283
 ExpMin= 1.61D-01 ExpMax= 5.48D+03 ExpMxC= 8.25D+02 IAcc=1 IRadAn=         1 AccDes= 0.00D+00
 Harris functional with IExCor=  205 and IRadAn=       1 diagonalized for initial guess.
 HarFok:  IExCor=  205 AccDes= 0.00D+00 IRadAn=         1 IDoV= 1 UseB2=F ITyADJ=14
 ICtDFT=  3500011 ScaDFX=  1.000000  1.000000  1.000000  1.000000
 FoFCou: FMM=F IPFlag=           0 FMFlag=      100000 FMFlg1=           0
         NFxFlg=           0 DoJE=T BraDBF=F KetDBF=T FulRan=T
         wScrn=  0.000000 ICntrl=     500 IOpCl=  0 I1Cent=   200000004 NGrid=           0
         NMat0=    1 NMatS0=      1 NMatT0=    0 NMatD0=    1 NMtDS0=    0 NMtDT0=    0
 Petite list used in FoFCou.
 Keep R1 ints in memory in canonical form, NReq=819193621.
 Requested convergence on RMS density matrix=1.00D-08 within 128 cycles.
 Requested convergence on MAX density matrix=1.00D-06.
 Requested convergence on             energy=1.00D-06.
 No special actions if energy rises.
 SCF Done:  E(RHF) =  -816.530348351     A.U. after   14 cycles
            NFock= 14  Conv=0.56D-08     -V/T= 2.0013

 **********************************************************************

            Population analysis using the SCF density.

 **********************************************************************

 Orbital symmetries:
 BldTbl:  Degeneracy threshold= 1.00D-02
       Occupied  (A) (A) (A) (A) (A) (A) (A) (A) (A) (A) (A) (A)
                 (A) (A) (A) (A) (A) (A) (A) (A) (A) (A) (A) (A)
                 (A) (A) (A) (A) (A) (A) (A) (A) (A) (A) (A) (A)
                 (A) (A) (A) (A) (A) (A) (A) (A) (A) (A) (A) (A)
                 (A) (A) (A) (A) (A) (A) (A) (A) (A) (A) (A) (A)
                 (A) (A) (A)
       Virtual   (A) (A) (A) (A) (A) (A) (A) (A) (A) (A) (A) (A)
                 (A) (A) (A) (A) (A) (A) (A) (A) (A) (A) (A) (A)
                 (A) (A) (A) (A) (A) (A) (A) (A) (A) (A) (A) (A)
                 (A) (A) (A) (A) (A) (A) (A) (A) (A) (A) (A) (A)
                 (A) (A) (A) (A) (A) (A) (A) (A) (A) (A) (A) (A)
                 (A) (A) (A) (A) (A) (A) (A) (A) (A) (A) (A) (A)
                 (A) (A) (A) (A) (A) (A) (A) (A) (A) (A) (A) (A)
                 (A) (A) (A) (A) (A) (A) (A) (A) (A) (A) (A) (A)
                 (A) (A) (A) (A) (A) (A) (A) (A) (A) (A) (A) (A)
                 (A) (A) (A) (A) (A) (A) (A) (A) (A) (A) (A) (A)
                 (A) (A) (A) (A) (A) (A) (A) (A) (A) (A) (A) (A)
                 (A) (A) (A) (A) (A) (A) (A) (A) (A) (A) (A) (A)
                 (A) (A) (A) (A) (A) (A) (A) (A) (A) (A) (A) (A)
                 (A) (A) (A) (A) (A) (A) (A) (A) (A) (A) (A) (A)
                 (A) (A) (A) (A) (A) (A) (A) (A) (A) (A) (A) (A)
                 (A) (A) (A) (A) (A) (A) (A) (A) (A) (A) (A) (A)
                 (A) (A) (A) (A) (A) (A) (A) (A) (A) (A) (A) (A)
                 (A) (A) (A) (A) (A) (A) (A) (A) (A) (A) (A) (A)
                 (A) (A) (A) (A)
 The electronic state is 1-A.
 Alpha  occ. eigenvalues --  -20.49076 -20.38945 -20.31815 -20.31213 -15.43712
 Alpha  occ. eigenvalues --  -11.21864 -11.19654 -11.18433 -11.15574 -11.12238
 Alpha  occ. eigenvalues --  -11.11366 -11.11278 -11.11061 -11.10898 -11.10530
 Alpha  occ. eigenvalues --  -11.10404 -11.08724  -1.31705  -1.25397  -1.20610
 Alpha  occ. eigenvalues --   -1.10658  -1.08799  -1.03589  -0.93732  -0.90378
 Alpha  occ. eigenvalues --   -0.89663  -0.86696  -0.82443  -0.74656  -0.71825
 Alpha  occ. eigenvalues --   -0.67577  -0.64283  -0.61463  -0.58523  -0.56733
 Alpha  occ. eigenvalues --   -0.56326  -0.53716  -0.53256  -0.51399  -0.49962
 Alpha  occ. eigenvalues --   -0.49762  -0.48287  -0.47120  -0.46096  -0.44717
 Alpha  occ. eigenvalues --   -0.44361  -0.43251  -0.42246  -0.42056  -0.40866
 Alpha  occ. eigenvalues --   -0.40105  -0.37984  -0.36321  -0.35648  -0.35441
 Alpha  occ. eigenvalues --   -0.34155  -0.28995  -0.25218  -0.22992  -0.22034
 Alpha  occ. eigenvalues --   -0.21690  -0.21341  -0.18422
 Alpha virt. eigenvalues --    0.25871   0.27778   0.32483   0.32912   0.35145
 Alpha virt. eigenvalues --    0.36651   0.38748   0.39536   0.40309   0.40716
 Alpha virt. eigenvalues --    0.40936   0.41742   0.42586   0.44001   0.44531
 Alpha virt. eigenvalues --    0.46034   0.46571   0.47816   0.50235   0.50719
 Alpha virt. eigenvalues --    0.52307   0.54835   0.56850   0.57524   0.60504
 Alpha virt. eigenvalues --    0.60968   0.63379   0.64237   0.65424   0.66705
 Alpha virt. eigenvalues --    0.68798   0.73100   0.77904   0.78436   0.81315
 Alpha virt. eigenvalues --    0.82949   0.83018   0.84842   0.85886   0.86205
 Alpha virt. eigenvalues --    0.87281   0.89437   0.91382   0.92579   0.93422
 Alpha virt. eigenvalues --    0.94285   0.94731   0.94869   0.95553   0.95930
 Alpha virt. eigenvalues --    0.97493   0.98032   0.99647   1.01874   1.03641
 Alpha virt. eigenvalues --    1.04830   1.05650   1.06374   1.08632   1.08965
 Alpha virt. eigenvalues --    1.10409   1.11852   1.12536   1.16182   1.17583
 Alpha virt. eigenvalues --    1.17998   1.19134   1.20595   1.21406   1.21912
 Alpha virt. eigenvalues --    1.22378   1.22986   1.23864   1.26120   1.26920
 Alpha virt. eigenvalues --    1.27246   1.28190   1.29229   1.29549   1.30177
 Alpha virt. eigenvalues --    1.30696   1.32254   1.32437   1.32993   1.33862
 Alpha virt. eigenvalues --    1.36177   1.37127   1.38721   1.40627   1.42110
 Alpha virt. eigenvalues --    1.43416   1.43842   1.45403   1.48345   1.49832
 Alpha virt. eigenvalues --    1.52087   1.53475   1.54391   1.55108   1.55927
 Alpha virt. eigenvalues --    1.58137   1.59326   1.60262   1.62911   1.65582
 Alpha virt. eigenvalues --    1.66532   1.68452   1.71123   1.74364   1.76273
 Alpha virt. eigenvalues --    1.76704   1.81369   1.83115   1.83280   1.84676
 Alpha virt. eigenvalues --    1.85789   1.87478   1.89843   1.90926   1.91385
 Alpha virt. eigenvalues --    1.92633   1.96389   2.00906   2.05912   2.08297
 Alpha virt. eigenvalues --    2.10340   2.12813   2.15436   2.19344   2.21932
 Alpha virt. eigenvalues --    2.22906   2.23406   2.24312   2.25884   2.26391
 Alpha virt. eigenvalues --    2.26968   2.27849   2.28438   2.29233   2.33530
 Alpha virt. eigenvalues --    2.34194   2.35441   2.38085   2.39452   2.40515
 Alpha virt. eigenvalues --    2.41413   2.41807   2.45085   2.45266   2.47130
 Alpha virt. eigenvalues --    2.49114   2.50433   2.52735   2.52948   2.54428
 Alpha virt. eigenvalues --    2.55809   2.56793   2.59035   2.59872   2.62759
 Alpha virt. eigenvalues --    2.63161   2.67269   2.67680   2.68678   2.68945
 Alpha virt. eigenvalues --    2.69792   2.74830   2.76495   2.78891   2.80864
 Alpha virt. eigenvalues --    2.81807   2.82459   2.84203   2.90727   2.93917
 Alpha virt. eigenvalues --    2.95111   2.97921   3.00201   3.01681   3.03678
 Alpha virt. eigenvalues --    3.09752   3.11190   3.12989   3.14381   3.16270
 Alpha virt. eigenvalues --    3.17738   3.21421   3.24574   3.26155   3.30457
 Alpha virt. eigenvalues --    3.31525   3.39049   3.40786   3.45339   3.46711
 Alpha virt. eigenvalues --    3.48306   3.50541   3.52167   3.59917   3.69795
 Alpha virt. eigenvalues --    3.70382   3.79984   3.96356   4.54808   4.59092
 Alpha virt. eigenvalues --    4.59597   4.63068   4.66698   4.68811   4.73857
 Alpha virt. eigenvalues --    4.75990   4.81899   4.86935   4.89957   4.98327
 Alpha virt. eigenvalues --    5.02122   5.08081   5.10298   5.24799   5.33431
          Condensed to atoms (all electrons):
               1          2          3          4          5          6
     1  C    5.260727   0.378688   0.372567   0.378544   0.370163  -0.082467
     2  H    0.378688   0.519568  -0.024026  -0.024716  -0.027778   0.001367
     3  H    0.372567  -0.024026   0.536283  -0.024630  -0.038416   0.002953
     4  H    0.378544  -0.024716  -0.024630   0.521994  -0.029147   0.002000
     5  C    0.370163  -0.027778  -0.038416  -0.029147   4.116391   0.584295
     6  O   -0.082467   0.001367   0.002953   0.002000   0.584295   8.238682
     7  N   -0.112756   0.000761   0.008906   0.001994   0.307134  -0.099358
     8  H   -0.002493   0.000067   0.000776   0.000056  -0.013516   0.001690
     9  C    0.004797  -0.000096   0.000062  -0.000089  -0.027585   0.008794
    10  H   -0.000025   0.000039   0.000000  -0.000012  -0.000578   0.002470
    11  C   -0.000242  -0.000006   0.000002   0.000028  -0.004919  -0.001202
    12  H   -0.000042   0.000002  -0.000004   0.000012   0.001291   0.002440
    13  H    0.000012   0.000000  -0.000001  -0.000001   0.000315   0.000087
    14  C   -0.000004   0.000000   0.000000  -0.000001   0.000110  -0.001352
    15  C    0.000000   0.000000   0.000000   0.000000  -0.000007  -0.000007
    16  H    0.000000   0.000000   0.000000   0.000000   0.000000   0.000000
    17  C    0.000000   0.000000   0.000000   0.000000   0.000000   0.000000
    18  H    0.000000   0.000000   0.000000   0.000000   0.000000   0.000000
    19  C    0.000000   0.000000   0.000000   0.000000   0.000000   0.000000
    20  O    0.000000   0.000000   0.000000   0.000000   0.000000   0.000000
    21  C    0.000000   0.000000   0.000000   0.000000   0.000000   0.000000
    22  H    0.000000   0.000000   0.000000   0.000000   0.000000   0.000000
    23  H    0.000000   0.000000   0.000000   0.000000   0.000000   0.000000
    24  H    0.000000   0.000000   0.000000   0.000000   0.000000   0.000000
    25  C    0.000000   0.000000   0.000000   0.000000   0.000001   0.000047
    26  H    0.000000   0.000000   0.000000   0.000000   0.000000  -0.000001
    27  C    0.000003   0.000000   0.000000   0.000000   0.000146  -0.000125
    28  H    0.000014   0.000000   0.000000   0.000000  -0.000023   0.004156
    29  C   -0.000044   0.000002  -0.000028  -0.000001   0.002334   0.000169
    30  O   -0.000091   0.000000  -0.000062  -0.000001   0.000434  -0.000006
    31  O    0.000000   0.000000   0.000000   0.000000  -0.000085   0.000000
               7          8          9         10         11         12
     1  C   -0.112756  -0.002493   0.004797  -0.000025  -0.000242  -0.000042
     2  H    0.000761   0.000067  -0.000096   0.000039  -0.000006   0.000002
     3  H    0.008906   0.000776   0.000062   0.000000   0.000002  -0.000004
     4  H    0.001994   0.000056  -0.000089  -0.000012   0.000028   0.000012
     5  C    0.307134  -0.013516  -0.027585  -0.000578  -0.004919   0.001291
     6  O   -0.099358   0.001690   0.008794   0.002470  -0.001202   0.002440
     7  N    7.455499   0.285311   0.126600  -0.048223  -0.050244  -0.007333
     8  H    0.285311   0.293326  -0.038889   0.002999   0.003546  -0.000072
     9  C    0.126600  -0.038889   5.317835   0.402599   0.302498  -0.038835
    10  H   -0.048223   0.002999   0.402599   0.519853  -0.056532   0.001495
    11  C   -0.050244   0.003546   0.302498  -0.056532   5.109780   0.403808
    12  H   -0.007333  -0.000072  -0.038835   0.001495   0.403808   0.542156
    13  H    0.002610   0.000011  -0.045933   0.003923   0.393627  -0.029230
    14  C    0.003397  -0.000119  -0.042066   0.002649   0.328623  -0.047961
    15  C    0.000090  -0.000003  -0.004120   0.001307  -0.045042   0.004105
    16  H   -0.000010  -0.000003  -0.000217   0.000281  -0.002050   0.000048
    17  C    0.000001   0.000000  -0.000077  -0.000089   0.003228  -0.000042
    18  H    0.000000   0.000000   0.000001   0.000000  -0.000116   0.000002
    19  C    0.000000   0.000000   0.000022  -0.000007   0.000253  -0.000017
    20  O    0.000000   0.000000   0.000000   0.000000   0.000000   0.000000
    21  C    0.000000   0.000000   0.000000   0.000000   0.000000   0.000000
    22  H    0.000000   0.000000   0.000000   0.000000   0.000000   0.000000
    23  H    0.000000   0.000000   0.000000   0.000000   0.000000   0.000000
    24  H    0.000000   0.000000   0.000000   0.000000   0.000000   0.000000
    25  C    0.000000   0.000000  -0.000118  -0.000110   0.003382   0.000281
    26  H    0.000000   0.000000   0.000001   0.000001  -0.000098  -0.000008
    27  C   -0.000114   0.000001  -0.001814   0.001635  -0.044518  -0.005134
    28  H   -0.000117   0.000000   0.000516   0.000113  -0.004077   0.002013
    29  C   -0.033628  -0.006845   0.342116  -0.019681  -0.031478   0.001834
    30  O   -0.021781   0.052972  -0.134433   0.000953   0.001672  -0.000123
    31  O    0.002608   0.001099  -0.130615   0.001810   0.009766   0.000332
              13         14         15         16         17         18
     1  C    0.000012  -0.000004   0.000000   0.000000   0.000000   0.000000
     2  H    0.000000   0.000000   0.000000   0.000000   0.000000   0.000000
     3  H   -0.000001   0.000000   0.000000   0.000000   0.000000   0.000000
     4  H   -0.000001  -0.000001   0.000000   0.000000   0.000000   0.000000
     5  C    0.000315   0.000110  -0.000007   0.000000   0.000000   0.000000
     6  O    0.000087  -0.001352  -0.000007   0.000000   0.000000   0.000000
     7  N    0.002610   0.003397   0.000090  -0.000010   0.000001   0.000000
     8  H    0.000011  -0.000119  -0.000003  -0.000003   0.000000   0.000000
     9  C   -0.045933  -0.042066  -0.004120  -0.000217  -0.000077   0.000001
    10  H    0.003923   0.002649   0.001307   0.000281  -0.000089   0.000000
    11  C    0.393627   0.328623  -0.045042  -0.002050   0.003228  -0.000116
    12  H   -0.029230  -0.047961   0.004105   0.000048  -0.000042   0.000002
    13  H    0.532436  -0.033870  -0.004940   0.001468   0.000034  -0.000003
    14  C   -0.033870   4.843351   0.579466  -0.017269  -0.051711   0.001742
    15  C   -0.004940   0.579466   4.971268   0.361596   0.473532  -0.024629
    16  H    0.001468  -0.017269   0.361596   0.392999  -0.029874  -0.001068
    17  C    0.000034  -0.051711   0.473532  -0.029874   5.124446   0.380791
    18  H   -0.000003   0.001742  -0.024629  -0.001068   0.380791   0.497598
    19  C    0.000003  -0.026190  -0.026155   0.001034   0.544185  -0.036629
    20  O    0.000000   0.000030   0.003567  -0.000027  -0.055525  -0.004523
    21  C    0.000000   0.000016  -0.000380  -0.000009  -0.008633   0.001596
    22  H    0.000000   0.000000  -0.000279  -0.000001   0.001055  -0.000221
    23  H    0.000000   0.000000   0.000018   0.000000   0.000426   0.000082
    24  H    0.000000  -0.000002  -0.000261  -0.000002   0.000787  -0.000232
    25  C   -0.000081  -0.048834  -0.038274   0.000205  -0.056864   0.002294
    26  H    0.000002   0.002344  -0.000214   0.000009   0.004461  -0.000123
    27  C    0.003026   0.564718  -0.048621   0.003322  -0.036958   0.000349
    28  H    0.000073  -0.024778   0.003943  -0.000109   0.000026   0.000011
    29  C   -0.001551  -0.000604   0.001107  -0.000109   0.000015   0.000001
    30  O    0.000214   0.000023  -0.000006   0.000068   0.000000   0.000000
    31  O    0.003864  -0.005799  -0.004959   0.018712   0.000418  -0.000008
              19         20         21         22         23         24
     1  C    0.000000   0.000000   0.000000   0.000000   0.000000   0.000000
     2  H    0.000000   0.000000   0.000000   0.000000   0.000000   0.000000
     3  H    0.000000   0.000000   0.000000   0.000000   0.000000   0.000000
     4  H    0.000000   0.000000   0.000000   0.000000   0.000000   0.000000
     5  C    0.000000   0.000000   0.000000   0.000000   0.000000   0.000000
     6  O    0.000000   0.000000   0.000000   0.000000   0.000000   0.000000
     7  N    0.000000   0.000000   0.000000   0.000000   0.000000   0.000000
     8  H    0.000000   0.000000   0.000000   0.000000   0.000000   0.000000
     9  C    0.000022   0.000000   0.000000   0.000000   0.000000   0.000000
    10  H   -0.000007   0.000000   0.000000   0.000000   0.000000   0.000000
    11  C    0.000253   0.000000   0.000000   0.000000   0.000000   0.000000
    12  H   -0.000017   0.000000   0.000000   0.000000   0.000000   0.000000
    13  H    0.000003   0.000000   0.000000   0.000000   0.000000   0.000000
    14  C   -0.026190   0.000030   0.000016   0.000000   0.000000  -0.000002
    15  C   -0.026155   0.003567  -0.000380  -0.000279   0.000018  -0.000261
    16  H    0.001034  -0.000027  -0.000009  -0.000001   0.000000  -0.000002
    17  C    0.544185  -0.055525  -0.008633   0.001055   0.000426   0.000787
    18  H   -0.036629  -0.004523   0.001596  -0.000221   0.000082  -0.000232
    19  C    4.417709   0.236904  -0.044908  -0.000086   0.002299  -0.000337
    20  O    0.236904   8.430099   0.218187  -0.040310  -0.036400  -0.040869
    21  C   -0.044908   0.218187   4.814789   0.390997   0.404369   0.390283
    22  H   -0.000086  -0.040310   0.390997   0.572361  -0.031339  -0.046711
    23  H    0.002299  -0.036400   0.404369  -0.031339   0.528952  -0.032672
    24  H   -0.000337  -0.040869   0.390283  -0.046711  -0.032672   0.581790
    25  C    0.588866  -0.050095   0.002615   0.000071  -0.000005  -0.000013
    26  H   -0.034427   0.001002  -0.000130   0.000019  -0.000022   0.000019
    27  C   -0.040985   0.001991  -0.000071  -0.000010   0.000003  -0.000005
    28  H    0.002198  -0.000047   0.000002   0.000000   0.000000   0.000000
    29  C   -0.000001   0.000000   0.000000   0.000000   0.000000   0.000000
    30  O    0.000000   0.000000   0.000000   0.000000   0.000000   0.000000
    31  O    0.000001   0.000000   0.000000   0.000000   0.000000   0.000000
              25         26         27         28         29         30
     1  C    0.000000   0.000000   0.000003   0.000014  -0.000044  -0.000091
     2  H    0.000000   0.000000   0.000000   0.000000   0.000002   0.000000
     3  H    0.000000   0.000000   0.000000   0.000000  -0.000028  -0.000062
     4  H    0.000000   0.000000   0.000000   0.000000  -0.000001  -0.000001
     5  C    0.000001   0.000000   0.000146  -0.000023   0.002334   0.000434
     6  O    0.000047  -0.000001  -0.000125   0.004156   0.000169  -0.000006
     7  N    0.000000   0.000000  -0.000114  -0.000117  -0.033628  -0.021781
     8  H    0.000000   0.000000   0.000001   0.000000  -0.006845   0.052972
     9  C   -0.000118   0.000001  -0.001814   0.000516   0.342116  -0.134433
    10  H   -0.000110   0.000001   0.001635   0.000113  -0.019681   0.000953
    11  C    0.003382  -0.000098  -0.044518  -0.004077  -0.031478   0.001672
    12  H    0.000281  -0.000008  -0.005134   0.002013   0.001834  -0.000123
    13  H   -0.000081   0.000002   0.003026   0.000073  -0.001551   0.000214
    14  C   -0.048834   0.002344   0.564718  -0.024778  -0.000604   0.000023
    15  C   -0.038274  -0.000214  -0.048621   0.003943   0.001107  -0.000006
    16  H    0.000205   0.000009   0.003322  -0.000109  -0.000109   0.000068
    17  C   -0.056864   0.004461  -0.036958   0.000026   0.000015   0.000000
    18  H    0.002294  -0.000123   0.000349   0.000011   0.000001   0.000000
    19  C    0.588866  -0.034427  -0.040985   0.002198  -0.000001   0.000000
    20  O   -0.050095   0.001002   0.001991  -0.000047   0.000000   0.000000
    21  C    0.002615  -0.000130  -0.000071   0.000002   0.000000   0.000000
    22  H    0.000071   0.000019  -0.000010   0.000000   0.000000   0.000000
    23  H   -0.000005  -0.000022   0.000003   0.000000   0.000000   0.000000
    24  H   -0.000013   0.000019  -0.000005   0.000000   0.000000   0.000000
    25  C    4.982009   0.376741   0.529880  -0.033925   0.000002   0.000000
    26  H    0.376741   0.498881  -0.030024  -0.002211   0.000000   0.000000
    27  C    0.529880  -0.030024   4.937326   0.376241   0.000096   0.000000
    28  H   -0.033925  -0.002211   0.376241   0.455739   0.000002   0.000000
    29  C    0.000002   0.000000   0.000096   0.000002   3.935020   0.520307
    30  O    0.000000   0.000000   0.000000   0.000000   0.520307   8.419492
    31  O   -0.000002   0.000000   0.000023   0.000001   0.520317  -0.081202
              31
     1  C    0.000000
     2  H    0.000000
     3  H    0.000000
     4  H    0.000000
     5  C   -0.000085
     6  O    0.000000
     7  N    0.002608
     8  H    0.001099
     9  C   -0.130615
    10  H    0.001810
    11  C    0.009766
    12  H    0.000332
    13  H    0.003864
    14  C   -0.005799
    15  C   -0.004959
    16  H    0.018712
    17  C    0.000418
    18  H   -0.000008
    19  C    0.000001
    20  O    0.000000
    21  C    0.000000
    22  H    0.000000
    23  H    0.000000
    24  H    0.000000
    25  C   -0.000002
    26  H    0.000000
    27  C    0.000023
    28  H    0.000001
    29  C    0.520317
    30  O   -0.081202
    31  O    8.401765
 Mulliken charges:
               1
     1  C   -0.567351
     2  H    0.176128
     3  H    0.165618
     4  H    0.173969
     5  C    0.759437
     6  O   -0.664629
     7  N   -0.821347
     8  H    0.420085
     9  C   -0.040954
    10  H    0.183132
    11  C   -0.319687
    12  H    0.168981
    13  H    0.173904
    14  C   -0.025909
    15  C   -0.202102
    16  H    0.271002
    17  C   -0.293634
    18  H    0.183086
    19  C    0.416270
    20  O   -0.663984
    21  C   -0.168723
    22  H    0.154454
    23  H    0.164289
    24  H    0.148226
    25  C   -0.258071
    26  H    0.183775
    27  C   -0.210382
    28  H    0.220243
    29  C    0.770652
    30  O   -0.758431
    31  O   -0.738046
 Sum of Mulliken charges =  -1.00000
 Mulliken charges with hydrogens summed into heavy atoms:
               1
     1  C   -0.051636
     5  C    0.759437
     6  O   -0.664629
     7  N   -0.401262
     9  C    0.142177
    11  C    0.023197
    14  C   -0.025909
    15  C    0.068901
    17  C   -0.110548
    19  C    0.416270
    20  O   -0.663984
    21  C    0.298246
    25  C   -0.074296
    27  C    0.009861
    29  C    0.770652
    30  O   -0.758431
    31  O   -0.738046
 DipInt: DoE/N= T F RetVal/Mat= T F Init=T NMatP=  1 IDeriv=0 Min/MaxMlt=  0  4
 Entering OneElI...
 OneElI was handed  1073534337 working-precision words.
 Multipole integrals L=0 to 4 MinM= 0 MaxM= 0.
 Requested accuracy = 0.1000D-12
 PrtBox:  NBox=     1 Levels=  1 BoxLen=   35.86 SMaxX=       22.39
          Shift=           12.268350            4.939755            2.698361
 Box      1 Number                   0 centers from      1 to     96:
 ShPair: Thresh= 1.00D-13 NBox=     1 BxSize= 3.59D+01 RnKept= 2.12D+01
         NSMCal=                 4656 NSMKep=                3611
 PrsmSu:  NPrtUS=   1 ThrOK=F IAlg=1 NPAlg=1 LenDen=           0.
 Prism:   IPart=     0 DynPar=F LinDyn=F Incr=          36.
 PRISM was handed  1073211633 working-precision words and  3611 shell-pairs
 IPart=  0 NShTot=        3611 NBatch=          67 AvBLen=        53.9
 PrSmSu:  NxtVal=             37.
 Electronic moments (au):
       -126.00000000         -2.39258154         -2.15463909          0.39208283
      -4327.27121418      -1131.88609366       -183.31940138        -17.71611965
          3.90158660          0.58547899       7521.42341685       -886.03907633
        -83.30502688      -2908.68063608       2746.65860380       2216.05521756
         80.46457728         11.11766468        264.29148323        -59.40641113
    -296239.37152344     -22608.04127355      -1080.13332571      14881.97545823
      -9981.62404705      -2110.98773812        345.76511055       -316.86692738
        -50.67277045     -31513.46110677      -6034.07556915      -1212.95832356
       -934.86133239       2030.17687048        297.76660634
 Electronic spatial extent (au):  <R**2>=           5642.4767
 DipInt: DoE/N= F T RetVal/Mat= T F Init=T NMatP=  1 IDeriv=0 Min/MaxMlt=  0  4
 Nuclear    moments (au):
        125.00000000          0.00000000          0.00000000          0.00000000
       4239.27979047       1027.06532348        106.82009792          0.00000000
          0.00000000          0.00000000      -7583.91696593        793.72145973
         69.86649031       2801.21272944      -2771.14168320      -2224.37724443
        -66.72790543         -7.24793930       -247.29491909         69.60737121
     281513.41217986      17993.84444106        430.53844087     -15851.33104664
      10223.31443873       1825.09118788       -323.64122682        334.36642185
         59.68268648      27787.30291439       3368.68688282        472.29555278
        968.91077048      -1947.64000691       -309.51614487
 Total      moments (au):
         -1.00000000         -2.39258154         -2.15463909          0.39208283
        -87.99142371       -104.82077018        -76.49930346        -17.71611965
          3.90158660          0.58547899        -62.49354908        -92.31761660
        -13.43853658       -107.46790664        -24.48307940         -8.32202687
         13.73667185          3.86972538         16.99656414         10.20096009
     -14725.95934357      -4614.19683249       -649.59488484       -969.35558841
        241.69039168       -285.89655023         22.12388373         17.49949447
          9.00991603      -3726.15819238      -2665.38868633       -740.66277079
         34.04943810         82.53686357        -11.74953853
 Traceless Quadrup. (au):
          1.77907541        -15.05027106         13.27119566        -17.71611965
          3.90158660          0.58547899
 Charge=             -1.0000 electrons
 Dipole moment (field-independent basis, Debye):
    X=             -6.0813    Y=             -5.4765    Z=              0.9966  Tot=              8.2443
 Quadrupole moment (field-independent basis, Debye-Ang):
   XX=           -118.3515   YY=           -140.9875   ZZ=           -102.8942
   XY=            -23.8288   XZ=              5.2478   YZ=              0.7875
 Traceless Quadrupole moment (field-independent basis, Debye-Ang):
   XX=              2.3929   YY=            -20.2431   ZZ=             17.8502
   XY=            -23.8288   XZ=              5.2478   YZ=              0.7875
 Octapole moment (field-independent basis, Debye-Ang**2):
  XXX=            -44.4805  YYY=            -65.7081  ZZZ=             -9.5650  XYY=            -76.4915
  XXY=            -17.4261  XXZ=             -5.9233  XZZ=              9.7772  YZZ=              2.7543
  YYZ=             12.0975  XYZ=              7.2606
 Hexadecapole moment (field-independent basis, Debye-Ang**3):
 XXXX=          -5546.5021 YYYY=          -1737.9277 ZZZZ=           -244.6686 XXXY=           -365.1058
 XXXZ=             91.0322 YYYX=           -107.6823 YYYZ=              8.3329 ZZZX=              6.5911
 ZZZY=              3.3936 XXYY=          -1403.4498 XXZZ=          -1003.9131 YYZZ=           -278.9691
 XXYZ=             12.8247 YYXZ=             31.0873 ZZXY=             -4.4254
 N-N= 1.171825330173D+03 E-N=-4.277184607251D+03  KE= 8.154589328880D+02
 Entering OneElI...
 OneElI was handed  1073573465 working-precision words.
 Calculate electrostatic properties
    NBasis =   283  MinDer = 0  MaxDer = 0
    NGrid  =    31  NMatD  =   1
 Requested accuracy = 0.1000D-12
 PrtBox:  NBox=     1 Levels=  1 BoxLen=   29.89 SMaxX=       22.39
          Shift=           12.268350            4.939755            2.698361
 Box      1 Number                   0 centers from      1 to     96:
 ShPair: Thresh= 1.00D-13 NBox=     1 BxSize= 2.99D+01 RnKept= 1.76D+01
         NSMCal=                 4656 NSMKep=                3229
 PrsmSu:  NPrtUS=   8 ThrOK=T IAlg=1 NPAlg=1 LenDen=           0.
 Prism:   IPart=     0 DynPar=F LinDyn=F Incr=         125.
 PRISM was handed   134072990 working-precision words and  3229 shell-pairs
 PRISM was handed   134072990 working-precision words and  3229 shell-pairs
 PRISM was handed   134072990 working-precision words and  3229 shell-pairs
 PRISM was handed   134072990 working-precision words and  3229 shell-pairs
 PRISM was handed   134072990 working-precision words and  3229 shell-pairs
 PRISM was handed   134072990 working-precision words and  3229 shell-pairs
 PRISM was handed   134072990 working-precision words and  3229 shell-pairs
 PRISM was handed   134072990 working-precision words and  3229 shell-pairs
 IPart=  7 NShTot=       11966 NBatch=         386 AvBLen=        31.0
 IPart=  6 NShTot=       12152 NBatch=         392 AvBLen=        31.0
 IPart=  4 NShTot=       12431 NBatch=         401 AvBLen=        31.0
 IPart=  5 NShTot=       12276 NBatch=         396 AvBLen=        31.0
 IPart=  2 NShTot=       12710 NBatch=         410 AvBLen=        31.0
 IPart=  3 NShTot=       12617 NBatch=         407 AvBLen=        31.0
 IPart=  0 NShTot=       13144 NBatch=         424 AvBLen=        31.0
 IPart=  1 NShTot=       12803 NBatch=         413 AvBLen=        31.0
 PrSmSu:  NxtVal=           1001.
 --------------------------------------------------------
       Center         ----      EFG at Nuclei      ----
                      3XX-RR        3YY-RR        3ZZ-RR
 --------------------------------------------------------
     1   Atom       -0.014860      0.011904      0.002956
     2   Atom        0.136256      0.084609     -0.220864
     3   Atom       -0.037932     -0.114328      0.152261
     4   Atom        0.145305     -0.077982     -0.067323
     5   Atom        0.302880      0.237226     -0.540106
     6   Atom        0.283195      0.301044     -0.584239
     7   Atom       -0.342493     -0.412509      0.755002
     8   Atom       -0.193053     -0.039516      0.232570
     9   Atom       -0.206452      0.137190      0.069261
    10   Atom        0.056034      0.128771     -0.184805
    11   Atom       -0.052823      0.071204     -0.018381
    12   Atom        0.094378     -0.175861      0.081483
    13   Atom        0.147540     -0.074063     -0.073477
    14   Atom        0.117209      0.175421     -0.292630
    15   Atom        0.143688      0.235427     -0.379115
    16   Atom        0.105659     -0.265531      0.159872
    17   Atom        0.129417      0.060646     -0.190063
    18   Atom       -0.022700     -0.151310      0.174010
    19   Atom       -0.179691      0.394808     -0.215118
    20   Atom       -1.493217      0.029918      1.463299
    21   Atom       -0.072540     -0.080152      0.152692
    22   Atom        0.109067      0.000628     -0.109695
    23   Atom       -0.203890      0.063372      0.140518
    24   Atom        0.141452     -0.000560     -0.140892
    25   Atom        0.145222      0.056455     -0.201678
    26   Atom        0.097349     -0.268703      0.171354
    27   Atom        0.152557      0.189125     -0.341682
    28   Atom       -0.022457     -0.141561      0.164018
    29   Atom        0.326315      0.200322     -0.526637
    30   Atom       -0.870672      1.184907     -0.314235
    31   Atom       -0.272356      0.613984     -0.341628
 --------------------------------------------------------
                        XY            XZ            YZ
 --------------------------------------------------------
     1   Atom        0.001054     -0.003039      0.000729
     2   Atom        0.040534      0.083210     -0.172814
     3   Atom       -0.224047     -0.049815     -0.059507
     4   Atom        0.051638     -0.047268      0.235440
     5   Atom        0.040863      0.020444      0.074679
     6   Atom       -1.265196     -0.136605      0.074190
     7   Atom        0.093747     -0.003673     -0.069918
     8   Atom       -0.275817      0.024802      0.010710
     9   Atom        0.217790      0.009504      0.047002
    10   Atom       -0.048960     -0.172491     -0.107068
    11   Atom       -0.021316     -0.015084      0.021304
    12   Atom        0.131869     -0.065615      0.169765
    13   Atom       -0.020182     -0.014826     -0.237155
    14   Atom       -0.018431      0.106316      0.005998
    15   Atom        0.001261      0.136481      0.000728
    16   Atom       -0.139840     -0.022466     -0.036642
    17   Atom        0.028731      0.080756      0.010528
    18   Atom        0.231209     -0.048287      0.051456
    19   Atom       -0.114096      0.004727     -0.012415
    20   Atom        0.589741     -0.815705      0.185506
    21   Atom        0.254800     -0.068331      0.067400
    22   Atom       -0.068108      0.101171      0.205789
    23   Atom       -0.171556     -0.100444     -0.046345
    24   Atom        0.045533      0.046117     -0.212696
    25   Atom        0.000423      0.088431      0.008035
    26   Atom       -0.157423     -0.026442     -0.055365
    27   Atom        0.023009      0.130104      0.028141
    28   Atom        0.227819     -0.040790      0.041059
    29   Atom       -0.038453     -0.113352     -0.027083
    30   Atom       -0.564346      0.067896      0.040178
    31   Atom        1.125521     -0.036156     -0.181578
 --------------------------------------------------------


 ---------------------------------------------------------------------------------
              Nuclear Quadrupole Coupling Constant in Principal Axis System
 ---------------------------------------------------------------------------------

       Atom             a.u.   MegaHertz   Gauss  10(-4) cm-1        Axes

              Baa    -0.4801     2.306     0.823     0.769 -0.5617  0.8261  0.0451
     7 N(14)  Bbb    -0.2792     1.341     0.478     0.447  0.8273  0.5603  0.0408
              Bcc     0.7593    -3.646    -1.301    -1.216 -0.0085 -0.0602  0.9981
 

 ---------------------------------------------------------------------------------

 No NMR shielding tensors so no spin-rotation constants.
 Leave Link  601 at Wed May 18 23:25:44 2016, MaxMem=  1073741824 cpu:         2.3
 FitSet:  NAtFit=    31 NAtPot=    31 NAtFrz=     0 MDM=    35 TotChg=  -1.00000
 Breneman (CHELPG) radii used.
 Atom Element Radius
    1     6    1.50
    2     1    1.45
    3     1    1.45
    4     1    1.45
    5     6    1.50
    6     8    1.70
    7     7    1.70
    8     1    1.45
    9     6    1.50
   10     1    1.45
   11     6    1.50
   12     1    1.45
   13     1    1.45
   14     6    1.50
   15     6    1.50
   16     1    1.45
   17     6    1.50
   18     1    1.45
   19     6    1.50
   20     8    1.70
   21     6    1.50
   22     1    1.45
   23     1    1.45
   24     1    1.45
   25     6    1.50
   26     1    1.45
   27     6    1.50
   28     1    1.45
   29     6    1.50
   30     8    1.70
   31     8    1.70
 Generate Potential Derived Charges using the Breneman model, NDens= 1.
 Grid spacing= 0.300 Box extension= 2.800
 NStep X,Y,Z=   60     38     31   Total possible points=       70680
 Number of Points to Fit=   18277
 Approximate Molecular Volume= 1310.99 A**3

 **********************************************************************

            Electrostatic Properties Using The SCF Density

 **********************************************************************

       Atomic Center    1 is at   4.667906 -1.844915 -0.248511
       Atomic Center    2 is at   4.878814 -2.284103 -1.217678
       Atomic Center    3 is at   5.357827 -1.028552 -0.071629
       Atomic Center    4 is at   4.823160 -2.614006  0.499589
       Atomic Center    5 is at   3.207862 -1.420974 -0.216726
       Atomic Center    6 is at   2.338669 -2.258151 -0.332964
       Atomic Center    7 is at   2.995108 -0.118652 -0.047487
       Atomic Center    8 is at   3.745802  0.539198 -0.097929
       Atomic Center    9 is at   1.706443  0.546812 -0.133262
       Atomic Center   10 is at   1.225464  0.257989 -1.062442
       Atomic Center   11 is at   0.773638  0.166861  1.042528
       Atomic Center   12 is at   1.142470 -0.747886  1.487520
       Atomic Center   13 is at   0.829007  0.941170  1.798870
       Atomic Center   14 is at  -0.675810 -0.053597  0.655858
       Atomic Center   15 is at  -1.550832  1.003343  0.455718
       Atomic Center   16 is at  -1.170467  2.004085  0.532185
       Atomic Center   17 is at  -2.883670  0.790624  0.120573
       Atomic Center   18 is at  -3.523344  1.640696 -0.025186
       Atomic Center   19 is at  -3.359991 -0.501126 -0.028812
       Atomic Center   20 is at  -4.647127 -0.817055 -0.349917
       Atomic Center   21 is at  -5.553005  0.209696 -0.597971
       Atomic Center   22 is at  -5.236280  0.834370 -1.427911
       Atomic Center   23 is at  -6.492131 -0.263591 -0.852051
       Atomic Center   24 is at  -5.700784  0.837416  0.276237
       Atomic Center   25 is at  -2.495189 -1.571833  0.150204
       Atomic Center   26 is at  -2.872448 -2.570291  0.019360
       Atomic Center   27 is at  -1.174038 -1.344018  0.484860
       Atomic Center   28 is at  -0.507634 -2.180494  0.600909
       Atomic Center   29 is at   1.980039  2.086100 -0.199615
       Atomic Center   30 is at   3.160837  2.413150 -0.358346
       Atomic Center   31 is at   0.981956  2.794894 -0.088335
      ESP Fit Center   32 is at  -9.117152 -0.959556 -1.314521
      ESP Fit Center   33 is at  -9.117152 -0.959556 -1.014521
      ESP Fit Center   34 is at  -9.117152 -0.959556 -0.714521
      ESP Fit Center   35 is at  -9.117152 -0.959556 -0.414521
      ESP Fit Center   36 is at  -9.117152 -0.659556 -1.614521
      ESP Fit Center   37 is at  -9.117152 -0.659556 -1.314521
      ESP Fit Center   38 is at  -9.117152 -0.659556 -1.014521
      ESP Fit Center   39 is at  -9.117152 -0.659556 -0.714521
      ESP Fit Center   40 is at  -9.117152 -0.659556 -0.414521
      ESP Fit Center   41 is at  -9.117152 -0.659556 -0.114521
      ESP Fit Center   42 is at  -9.117152 -0.359556 -1.614521
      ESP Fit Center   43 is at  -9.117152 -0.359556 -1.314521
      ESP Fit Center   44 is at  -9.117152 -0.359556 -1.014521
      ESP Fit Center   45 is at  -9.117152 -0.359556 -0.714521
      ESP Fit Center   46 is at  -9.117152 -0.359556 -0.414521
      ESP Fit Center   47 is at  -9.117152 -0.359556 -0.114521
      ESP Fit Center   48 is at  -9.117152 -0.059556 -1.614521
      ESP Fit Center   49 is at  -9.117152 -0.059556 -1.314521
      ESP Fit Center   50 is at  -9.117152 -0.059556 -1.014521
      ESP Fit Center   51 is at  -9.117152 -0.059556 -0.714521
      ESP Fit Center   52 is at  -9.117152 -0.059556 -0.414521
      ESP Fit Center   53 is at  -9.117152 -0.059556 -0.114521
      ESP Fit Center   54 is at  -9.117152  0.240444 -1.614521
      ESP Fit Center   55 is at  -9.117152  0.240444 -1.314521
      ESP Fit Center   56 is at  -9.117152  0.240444 -1.014521
      ESP Fit Center   57 is at  -9.117152  0.240444 -0.714521
      ESP Fit Center   58 is at  -9.117152  0.240444 -0.414521
      ESP Fit Center   59 is at  -9.117152  0.240444 -0.114521
      ESP Fit Center   60 is at  -9.117152  0.540444 -1.314521
      ESP Fit Center   61 is at  -9.117152  0.540444 -1.014521
      ESP Fit Center   62 is at  -9.117152  0.540444 -0.714521
      ESP Fit Center   63 is at  -9.117152  0.540444 -0.414521
      ESP Fit Center   64 is at  -8.817152 -1.559556 -1.614521
      ESP Fit Center   65 is at  -8.817152 -1.559556 -1.314521
      ESP Fit Center   66 is at  -8.817152 -1.559556 -1.014521
      ESP Fit Center   67 is at  -8.817152 -1.559556 -0.714521
      ESP Fit Center   68 is at  -8.817152 -1.559556 -0.414521
      ESP Fit Center   69 is at  -8.817152 -1.559556 -0.114521
      ESP Fit Center   70 is at  -8.817152 -1.259556 -1.914521
      ESP Fit Center   71 is at  -8.817152 -1.259556 -1.614521
      ESP Fit Center   72 is at  -8.817152 -1.259556 -1.314521
      ESP Fit Center   73 is at  -8.817152 -1.259556 -1.014521
      ESP Fit Center   74 is at  -8.817152 -1.259556 -0.714521
      ESP Fit Center   75 is at  -8.817152 -1.259556 -0.414521
      ESP Fit Center   76 is at  -8.817152 -1.259556 -0.114521
      ESP Fit Center   77 is at  -8.817152 -1.259556  0.185479
      ESP Fit Center   78 is at  -8.817152 -0.959556 -2.214521
      ESP Fit Center   79 is at  -8.817152 -0.959556 -1.914521
      ESP Fit Center   80 is at  -8.817152 -0.959556 -1.614521
      ESP Fit Center   81 is at  -8.817152 -0.959556 -1.314521
      ESP Fit Center   82 is at  -8.817152 -0.959556 -1.014521
      ESP Fit Center   83 is at  -8.817152 -0.959556 -0.714521
      ESP Fit Center   84 is at  -8.817152 -0.959556 -0.414521
      ESP Fit Center   85 is at  -8.817152 -0.959556 -0.114521
      ESP Fit Center   86 is at  -8.817152 -0.959556  0.185479
      ESP Fit Center   87 is at  -8.817152 -0.959556  0.485479
      ESP Fit Center   88 is at  -8.817152 -0.659556 -2.214521
      ESP Fit Center   89 is at  -8.817152 -0.659556 -1.914521
      ESP Fit Center   90 is at  -8.817152 -0.659556 -1.614521
      ESP Fit Center   91 is at  -8.817152 -0.659556 -1.314521
      ESP Fit Center   92 is at  -8.817152 -0.659556 -1.014521
      ESP Fit Center   93 is at  -8.817152 -0.659556 -0.714521
      ESP Fit Center   94 is at  -8.817152 -0.659556 -0.414521
      ESP Fit Center   95 is at  -8.817152 -0.659556 -0.114521
      ESP Fit Center   96 is at  -8.817152 -0.659556  0.185479
      ESP Fit Center   97 is at  -8.817152 -0.659556  0.485479
      ESP Fit Center   98 is at  -8.817152 -0.359556 -2.214521
      ESP Fit Center   99 is at  -8.817152 -0.359556 -1.914521
      ESP Fit Center  100 is at  -8.817152 -0.359556 -1.614521
      ESP Fit Center  101 is at  -8.817152 -0.359556 -1.314521
      ESP Fit Center  102 is at  -8.817152 -0.359556 -1.014521
      ESP Fit Center  103 is at  -8.817152 -0.359556 -0.714521
      ESP Fit Center  104 is at  -8.817152 -0.359556 -0.414521
      ESP Fit Center  105 is at  -8.817152 -0.359556 -0.114521
      ESP Fit Center  106 is at  -8.817152 -0.359556  0.185479
      ESP Fit Center  107 is at  -8.817152 -0.359556  0.485479
      ESP Fit Center  108 is at  -8.817152 -0.059556 -2.214521
      ESP Fit Center  109 is at  -8.817152 -0.059556 -1.914521
      ESP Fit Center  110 is at  -8.817152 -0.059556 -1.614521
      ESP Fit Center  111 is at  -8.817152 -0.059556 -1.314521
      ESP Fit Center  112 is at  -8.817152 -0.059556 -1.014521
      ESP Fit Center  113 is at  -8.817152 -0.059556 -0.714521
      ESP Fit Center  114 is at  -8.817152 -0.059556 -0.414521
      ESP Fit Center  115 is at  -8.817152 -0.059556 -0.114521
      ESP Fit Center  116 is at  -8.817152 -0.059556  0.185479
      ESP Fit Center  117 is at  -8.817152 -0.059556  0.485479
      ESP Fit Center  118 is at  -8.817152  0.240444 -2.214521
      ESP Fit Center  119 is at  -8.817152  0.240444 -1.914521
      ESP Fit Center  120 is at  -8.817152  0.240444 -1.614521
      ESP Fit Center  121 is at  -8.817152  0.240444 -1.314521
      ESP Fit Center  122 is at  -8.817152  0.240444 -1.014521
      ESP Fit Center  123 is at  -8.817152  0.240444 -0.714521
      ESP Fit Center  124 is at  -8.817152  0.240444 -0.414521
      ESP Fit Center  125 is at  -8.817152  0.240444 -0.114521
      ESP Fit Center  126 is at  -8.817152  0.240444  0.185479
      ESP Fit Center  127 is at  -8.817152  0.240444  0.485479
      ESP Fit Center  128 is at  -8.817152  0.540444 -1.914521
      ESP Fit Center  129 is at  -8.817152  0.540444 -1.614521
      ESP Fit Center  130 is at  -8.817152  0.540444 -1.314521
      ESP Fit Center  131 is at  -8.817152  0.540444 -1.014521
      ESP Fit Center  132 is at  -8.817152  0.540444 -0.714521
      ESP Fit Center  133 is at  -8.817152  0.540444 -0.414521
      ESP Fit Center  134 is at  -8.817152  0.540444 -0.114521
      ESP Fit Center  135 is at  -8.817152  0.540444  0.185479
      ESP Fit Center  136 is at  -8.817152  0.840444 -1.914521
      ESP Fit Center  137 is at  -8.817152  0.840444 -1.614521
      ESP Fit Center  138 is at  -8.817152  0.840444 -1.314521
      ESP Fit Center  139 is at  -8.817152  0.840444 -1.014521
      ESP Fit Center  140 is at  -8.817152  0.840444 -0.714521
      ESP Fit Center  141 is at  -8.817152  0.840444 -0.414521
      ESP Fit Center  142 is at  -8.817152  0.840444 -0.114521
      ESP Fit Center  143 is at  -8.817152  0.840444  0.185479
      ESP Fit Center  144 is at  -8.817152  1.140444 -1.314521
      ESP Fit Center  145 is at  -8.817152  1.140444 -1.014521
      ESP Fit Center  146 is at  -8.817152  1.140444 -0.714521
      ESP Fit Center  147 is at  -8.817152  1.140444 -0.414521
      ESP Fit Center  148 is at  -8.517152 -2.159556 -1.014521
      ESP Fit Center  149 is at  -8.517152 -2.159556 -0.714521
      ESP Fit Center  150 is at  -8.517152 -1.859556 -1.914521
      ESP Fit Center  151 is at  -8.517152 -1.859556 -1.614521
      ESP Fit Center  152 is at  -8.517152 -1.859556 -1.314521
      ESP Fit Center  153 is at  -8.517152 -1.859556 -1.014521
      ESP Fit Center  154 is at  -8.517152 -1.859556 -0.714521
      ESP Fit Center  155 is at  -8.517152 -1.859556 -0.414521
      ESP Fit Center  156 is at  -8.517152 -1.859556 -0.114521
      ESP Fit Center  157 is at  -8.517152 -1.859556  0.185479
      ESP Fit Center  158 is at  -8.517152 -1.559556 -2.214521
      ESP Fit Center  159 is at  -8.517152 -1.559556 -1.914521
      ESP Fit Center  160 is at  -8.517152 -1.559556 -1.614521
      ESP Fit Center  161 is at  -8.517152 -1.559556 -1.314521
      ESP Fit Center  162 is at  -8.517152 -1.559556 -1.014521
      ESP Fit Center  163 is at  -8.517152 -1.559556 -0.714521
      ESP Fit Center  164 is at  -8.517152 -1.559556 -0.414521
      ESP Fit Center  165 is at  -8.517152 -1.559556 -0.114521
      ESP Fit Center  166 is at  -8.517152 -1.559556  0.185479
      ESP Fit Center  167 is at  -8.517152 -1.559556  0.485479
      ESP Fit Center  168 is at  -8.517152 -1.259556 -2.214521
      ESP Fit Center  169 is at  -8.517152 -1.259556 -1.914521
      ESP Fit Center  170 is at  -8.517152 -1.259556 -1.614521
      ESP Fit Center  171 is at  -8.517152 -1.259556 -1.314521
      ESP Fit Center  172 is at  -8.517152 -1.259556 -1.014521
      ESP Fit Center  173 is at  -8.517152 -1.259556 -0.714521
      ESP Fit Center  174 is at  -8.517152 -1.259556 -0.414521
      ESP Fit Center  175 is at  -8.517152 -1.259556 -0.114521
      ESP Fit Center  176 is at  -8.517152 -1.259556  0.185479
      ESP Fit Center  177 is at  -8.517152 -1.259556  0.485479
      ESP Fit Center  178 is at  -8.517152 -1.259556  0.785479
      ESP Fit Center  179 is at  -8.517152 -0.959556 -2.514521
      ESP Fit Center  180 is at  -8.517152 -0.959556 -2.214521
      ESP Fit Center  181 is at  -8.517152 -0.959556 -1.914521
      ESP Fit Center  182 is at  -8.517152 -0.959556 -1.614521
      ESP Fit Center  183 is at  -8.517152 -0.959556 -1.314521
      ESP Fit Center  184 is at  -8.517152 -0.959556 -1.014521
      ESP Fit Center  185 is at  -8.517152 -0.959556 -0.714521
      ESP Fit Center  186 is at  -8.517152 -0.959556 -0.414521
      ESP Fit Center  187 is at  -8.517152 -0.959556 -0.114521
      ESP Fit Center  188 is at  -8.517152 -0.959556  0.185479
      ESP Fit Center  189 is at  -8.517152 -0.959556  0.485479
      ESP Fit Center  190 is at  -8.517152 -0.959556  0.785479
      ESP Fit Center  191 is at  -8.517152 -0.659556 -2.514521
      ESP Fit Center  192 is at  -8.517152 -0.659556 -2.214521
      ESP Fit Center  193 is at  -8.517152 -0.659556 -1.914521
      ESP Fit Center  194 is at  -8.517152 -0.659556 -1.614521
      ESP Fit Center  195 is at  -8.517152 -0.659556 -1.314521
      ESP Fit Center  196 is at  -8.517152 -0.659556 -1.014521
      ESP Fit Center  197 is at  -8.517152 -0.659556 -0.714521
      ESP Fit Center  198 is at  -8.517152 -0.659556 -0.414521
      ESP Fit Center  199 is at  -8.517152 -0.659556 -0.114521
      ESP Fit Center  200 is at  -8.517152 -0.659556  0.185479
      ESP Fit Center  201 is at  -8.517152 -0.659556  0.485479
      ESP Fit Center  202 is at  -8.517152 -0.659556  0.785479
      ESP Fit Center  203 is at  -8.517152 -0.359556 -2.514521
      ESP Fit Center  204 is at  -8.517152 -0.359556 -2.214521
      ESP Fit Center  205 is at  -8.517152 -0.359556 -1.914521
      ESP Fit Center  206 is at  -8.517152 -0.359556 -1.614521
      ESP Fit Center  207 is at  -8.517152 -0.359556 -1.314521
      ESP Fit Center  208 is at  -8.517152 -0.359556 -1.014521
      ESP Fit Center  209 is at  -8.517152 -0.359556 -0.714521
      ESP Fit Center  210 is at  -8.517152 -0.359556 -0.414521
      ESP Fit Center  211 is at  -8.517152 -0.359556 -0.114521
      ESP Fit Center  212 is at  -8.517152 -0.359556  0.185479
      ESP Fit Center  213 is at  -8.517152 -0.359556  0.485479
      ESP Fit Center  214 is at  -8.517152 -0.359556  0.785479
      ESP Fit Center  215 is at  -8.517152 -0.059556 -2.514521
      ESP Fit Center  216 is at  -8.517152 -0.059556 -2.214521
      ESP Fit Center  217 is at  -8.517152 -0.059556 -1.914521
      ESP Fit Center  218 is at  -8.517152 -0.059556 -1.614521
      ESP Fit Center  219 is at  -8.517152 -0.059556 -1.314521
      ESP Fit Center  220 is at  -8.517152 -0.059556 -1.014521
      ESP Fit Center  221 is at  -8.517152 -0.059556 -0.714521
      ESP Fit Center  222 is at  -8.517152 -0.059556 -0.414521
      ESP Fit Center  223 is at  -8.517152 -0.059556 -0.114521
      ESP Fit Center  224 is at  -8.517152 -0.059556  0.185479
      ESP Fit Center  225 is at  -8.517152 -0.059556  0.485479
      ESP Fit Center  226 is at  -8.517152 -0.059556  0.785479
      ESP Fit Center  227 is at  -8.517152  0.240444 -2.514521
      ESP Fit Center  228 is at  -8.517152  0.240444 -2.214521
      ESP Fit Center  229 is at  -8.517152  0.240444 -1.914521
      ESP Fit Center  230 is at  -8.517152  0.240444 -1.614521
      ESP Fit Center  231 is at  -8.517152  0.240444 -1.314521
      ESP Fit Center  232 is at  -8.517152  0.240444 -1.014521
      ESP Fit Center  233 is at  -8.517152  0.240444 -0.714521
      ESP Fit Center  234 is at  -8.517152  0.240444 -0.414521
      ESP Fit Center  235 is at  -8.517152  0.240444 -0.114521
      ESP Fit Center  236 is at  -8.517152  0.240444  0.185479
      ESP Fit Center  237 is at  -8.517152  0.240444  0.485479
      ESP Fit Center  238 is at  -8.517152  0.240444  0.785479
      ESP Fit Center  239 is at  -8.517152  0.540444 -2.514521
      ESP Fit Center  240 is at  -8.517152  0.540444 -2.214521
      ESP Fit Center  241 is at  -8.517152  0.540444 -1.914521
      ESP Fit Center  242 is at  -8.517152  0.540444 -1.614521
      ESP Fit Center  243 is at  -8.517152  0.540444 -1.314521
      ESP Fit Center  244 is at  -8.517152  0.540444 -1.014521
      ESP Fit Center  245 is at  -8.517152  0.540444 -0.714521
      ESP Fit Center  246 is at  -8.517152  0.540444 -0.414521
      ESP Fit Center  247 is at  -8.517152  0.540444 -0.114521
      ESP Fit Center  248 is at  -8.517152  0.540444  0.185479
      ESP Fit Center  249 is at  -8.517152  0.540444  0.485479
      ESP Fit Center  250 is at  -8.517152  0.540444  0.785479
      ESP Fit Center  251 is at  -8.517152  0.840444 -2.214521
      ESP Fit Center  252 is at  -8.517152  0.840444 -1.914521
      ESP Fit Center  253 is at  -8.517152  0.840444 -1.614521
      ESP Fit Center  254 is at  -8.517152  0.840444 -1.314521
      ESP Fit Center  255 is at  -8.517152  0.840444 -1.014521
      ESP Fit Center  256 is at  -8.517152  0.840444 -0.714521
      ESP Fit Center  257 is at  -8.517152  0.840444 -0.414521
      ESP Fit Center  258 is at  -8.517152  0.840444 -0.114521
      ESP Fit Center  259 is at  -8.517152  0.840444  0.185479
      ESP Fit Center  260 is at  -8.517152  0.840444  0.485479
      ESP Fit Center  261 is at  -8.517152  1.140444 -1.914521
      ESP Fit Center  262 is at  -8.517152  1.140444 -1.614521
      ESP Fit Center  263 is at  -8.517152  1.140444 -1.314521
      ESP Fit Center  264 is at  -8.517152  1.140444 -1.014521
      ESP Fit Center  265 is at  -8.517152  1.140444 -0.714521
      ESP Fit Center  266 is at  -8.517152  1.140444 -0.414521
      ESP Fit Center  267 is at  -8.517152  1.140444 -0.114521
      ESP Fit Center  268 is at  -8.517152  1.140444  0.185479
      ESP Fit Center  269 is at  -8.517152  1.440444 -1.614521
      ESP Fit Center  270 is at  -8.517152  1.440444 -1.314521
      ESP Fit Center  271 is at  -8.517152  1.440444 -1.014521
      ESP Fit Center  272 is at  -8.517152  1.440444 -0.714521
      ESP Fit Center  273 is at  -8.517152  1.440444 -0.414521
      ESP Fit Center  274 is at  -8.517152  1.440444 -0.114521
      ESP Fit Center  275 is at  -8.217152 -2.459556 -1.014521
      ESP Fit Center  276 is at  -8.217152 -2.459556 -0.714521
      ESP Fit Center  277 is at  -8.217152 -2.159556 -1.914521
      ESP Fit Center  278 is at  -8.217152 -2.159556 -1.614521
      ESP Fit Center  279 is at  -8.217152 -2.159556 -1.314521
      ESP Fit Center  280 is at  -8.217152 -2.159556 -1.014521
      ESP Fit Center  281 is at  -8.217152 -2.159556 -0.714521
      ESP Fit Center  282 is at  -8.217152 -2.159556 -0.414521
      ESP Fit Center  283 is at  -8.217152 -2.159556 -0.114521
      ESP Fit Center  284 is at  -8.217152 -2.159556  0.185479
      ESP Fit Center  285 is at  -8.217152 -1.859556 -2.214521
      ESP Fit Center  286 is at  -8.217152 -1.859556 -1.914521
      ESP Fit Center  287 is at  -8.217152 -1.859556 -1.614521
      ESP Fit Center  288 is at  -8.217152 -1.859556 -1.314521
      ESP Fit Center  289 is at  -8.217152 -1.859556 -1.014521
      ESP Fit Center  290 is at  -8.217152 -1.859556 -0.714521
      ESP Fit Center  291 is at  -8.217152 -1.859556 -0.414521
      ESP Fit Center  292 is at  -8.217152 -1.859556 -0.114521
      ESP Fit Center  293 is at  -8.217152 -1.859556  0.185479
      ESP Fit Center  294 is at  -8.217152 -1.859556  0.485479
      ESP Fit Center  295 is at  -8.217152 -1.559556 -2.514521
      ESP Fit Center  296 is at  -8.217152 -1.559556 -2.214521
      ESP Fit Center  297 is at  -8.217152 -1.559556 -1.914521
      ESP Fit Center  298 is at  -8.217152 -1.559556 -1.614521
      ESP Fit Center  299 is at  -8.217152 -1.559556 -1.314521
      ESP Fit Center  300 is at  -8.217152 -1.559556 -1.014521
      ESP Fit Center  301 is at  -8.217152 -1.559556 -0.714521
      ESP Fit Center  302 is at  -8.217152 -1.559556 -0.414521
      ESP Fit Center  303 is at  -8.217152 -1.559556 -0.114521
      ESP Fit Center  304 is at  -8.217152 -1.559556  0.185479
      ESP Fit Center  305 is at  -8.217152 -1.559556  0.485479
      ESP Fit Center  306 is at  -8.217152 -1.559556  0.785479
      ESP Fit Center  307 is at  -8.217152 -1.259556 -2.814521
      ESP Fit Center  308 is at  -8.217152 -1.259556 -2.514521
      ESP Fit Center  309 is at  -8.217152 -1.259556 -2.214521
      ESP Fit Center  310 is at  -8.217152 -1.259556 -1.914521
      ESP Fit Center  311 is at  -8.217152 -1.259556 -1.614521
      ESP Fit Center  312 is at  -8.217152 -1.259556 -1.314521
      ESP Fit Center  313 is at  -8.217152 -1.259556 -1.014521
      ESP Fit Center  314 is at  -8.217152 -1.259556 -0.714521
      ESP Fit Center  315 is at  -8.217152 -1.259556 -0.414521
      ESP Fit Center  316 is at  -8.217152 -1.259556 -0.114521
      ESP Fit Center  317 is at  -8.217152 -1.259556  0.185479
      ESP Fit Center  318 is at  -8.217152 -1.259556  0.485479
      ESP Fit Center  319 is at  -8.217152 -1.259556  0.785479
      ESP Fit Center  320 is at  -8.217152 -1.259556  1.085479
      ESP Fit Center  321 is at  -8.217152 -0.959556 -2.814521
      ESP Fit Center  322 is at  -8.217152 -0.959556 -2.514521
      ESP Fit Center  323 is at  -8.217152 -0.959556 -2.214521
      ESP Fit Center  324 is at  -8.217152 -0.959556 -1.914521
      ESP Fit Center  325 is at  -8.217152 -0.959556 -1.614521
      ESP Fit Center  326 is at  -8.217152 -0.959556 -1.314521
      ESP Fit Center  327 is at  -8.217152 -0.959556 -1.014521
      ESP Fit Center  328 is at  -8.217152 -0.959556 -0.714521
      ESP Fit Center  329 is at  -8.217152 -0.959556 -0.414521
      ESP Fit Center  330 is at  -8.217152 -0.959556 -0.114521
      ESP Fit Center  331 is at  -8.217152 -0.959556  0.185479
      ESP Fit Center  332 is at  -8.217152 -0.959556  0.485479
      ESP Fit Center  333 is at  -8.217152 -0.959556  0.785479
      ESP Fit Center  334 is at  -8.217152 -0.959556  1.085479
      ESP Fit Center  335 is at  -8.217152 -0.659556 -2.814521
      ESP Fit Center  336 is at  -8.217152 -0.659556 -2.514521
      ESP Fit Center  337 is at  -8.217152 -0.659556 -2.214521
      ESP Fit Center  338 is at  -8.217152 -0.659556 -1.914521
      ESP Fit Center  339 is at  -8.217152 -0.659556 -1.614521
      ESP Fit Center  340 is at  -8.217152 -0.659556 -1.314521
[...]
 **** Fit      -0.071058
 **** Fit      -0.072137
 **** Fit      -0.073249
 **** Fit      -0.074173
 **** Fit      -0.074705
 **** Fit      -0.074836
 **** Fit      -0.074718
 **** Fit      -0.074456
 **** Fit      -0.074015
 **** Fit      -0.073343
 **** Fit      -0.072483
 **** Fit      -0.071541
 **** Fit      -0.070600
 **** Fit      -0.069690
 **** Fit      -0.068799
 **** Fit      -0.068989
 **** Fit      -0.069797
 **** Fit      -0.070609
 **** Fit      -0.071479
 **** Fit      -0.072447
 **** Fit      -0.073490
 **** Fit      -0.074463
 **** Fit      -0.075123
 **** Fit      -0.075294
 **** Fit      -0.075064
 **** Fit      -0.074740
 **** Fit      -0.074535
 **** Fit      -0.074366
 **** Fit      -0.074020
 **** Fit      -0.073414
 **** Fit      -0.072620
 **** Fit      -0.071742
 **** Fit      -0.070843
 **** Fit      -0.069935
 **** Fit      -0.070216
 **** Fit      -0.071094
 **** Fit      -0.071966
 **** Fit      -0.072867
 **** Fit      -0.073809
 **** Fit      -0.074730
 **** Fit      -0.075446
 **** Fit      -0.075691
 **** Fit      -0.075305
 **** Fit      -0.074488
 **** Fit      -0.073792
 **** Fit      -0.073635
 **** Fit      -0.073878
 **** Fit      -0.074060
 **** Fit      -0.073901
 **** Fit      -0.073409
 **** Fit      -0.072707
 **** Fit      -0.071895
 **** Fit      -0.072420
 **** Fit      -0.073329
 **** Fit      -0.074220
 **** Fit      -0.075072
 **** Fit      -0.075789
 **** Fit      -0.076158
 **** Fit      -0.075892
 **** Fit      -0.074842
 **** Fit      -0.073332
 **** Fit      -0.072114
 **** Fit      -0.072863
 **** Fit      -0.073689
 **** Fit      -0.074086
 **** Fit      -0.073991
 **** Fit      -0.073539
 **** Fit      -0.072866
 **** Fit      -0.072050
 **** Fit      -0.074686
 **** Fit      -0.075535
 **** Fit      -0.076260
 **** Fit      -0.076742
 **** Fit      -0.076763
 **** Fit      -0.076050
 **** Fit      -0.074493
 **** Fit      -0.072512
 **** Fit      -0.072174
 **** Fit      -0.073467
 **** Fit      -0.074308
 **** Fit      -0.074560
 **** Fit      -0.074348
 **** Fit      -0.073819
 **** Fit      -0.073073
 **** Fit      -0.076861
 **** Fit      -0.077467
 **** Fit      -0.077755
 **** Fit      -0.077536
 **** Fit      -0.076601
 **** Fit      -0.074919
 **** Fit      -0.072932
 **** Fit      -0.071561
 **** Fit      -0.071519
 **** Fit      -0.072586
 **** Fit      -0.073931
 **** Fit      -0.074911
 **** Fit      -0.075333
 **** Fit      -0.075264
 **** Fit      -0.074829
 **** Fit      -0.074127
 **** Fit      -0.078260
 **** Fit      -0.078800
 **** Fit      -0.078987
 **** Fit      -0.078686
 **** Fit      -0.077780
 **** Fit      -0.076315
 **** Fit      -0.074678
 **** Fit      -0.073551
 **** Fit      -0.073434
 **** Fit      -0.074192
 **** Fit      -0.075237
 **** Fit      -0.076058
 **** Fit      -0.076439
 **** Fit      -0.076380
 **** Fit      -0.075956
 **** Fit      -0.079780
 **** Fit      -0.080328
 **** Fit      -0.080520
 **** Fit      -0.080277
 **** Fit      -0.079558
 **** Fit      -0.078452
 **** Fit      -0.077255
 **** Fit      -0.076404
 **** Fit      -0.076203
 **** Fit      -0.076587
 **** Fit      -0.077206
 **** Fit      -0.077707
 **** Fit      -0.077897
 **** Fit      -0.077728
 **** Fit      -0.077228
 **** Fit      -0.082065
 **** Fit      -0.082355
 **** Fit      -0.082262
 **** Fit      -0.081791
 **** Fit      -0.081037
 **** Fit      -0.080208
 **** Fit      -0.079568
 **** Fit      -0.079295
 **** Fit      -0.079362
 **** Fit      -0.079579
 **** Fit      -0.079724
 **** Fit      -0.079646
 **** Fit      -0.079284
 **** Fit      -0.084433
 **** Fit      -0.084545
 **** Fit      -0.084331
 **** Fit      -0.083873
 **** Fit      -0.083312
 **** Fit      -0.082809
 **** Fit      -0.082469
 **** Fit      -0.082288
 **** Fit      -0.082165
 **** Fit      -0.081970
 **** Fit      -0.081597
 **** Fit      -0.080992
 **** Fit      -0.087005
 **** Fit      -0.087043
 **** Fit      -0.086832
 **** Fit      -0.086465
 **** Fit      -0.086043
 **** Fit      -0.085636
 **** Fit      -0.085250
 **** Fit      -0.084838
 **** Fit      -0.084327
 **** Fit      -0.083653
 **** Fit      -0.089792
 **** Fit      -0.089793
 **** Fit      -0.089575
 **** Fit      -0.089203
 **** Fit      -0.088725
 **** Fit      -0.088159
 **** Fit      -0.087489
 **** Fit      -0.063102
 **** Fit      -0.063809
 **** Fit      -0.064334
 **** Fit      -0.064757
 **** Fit      -0.065115
 **** Fit      -0.065001
 **** Fit      -0.064703
 **** Fit      -0.064264
 **** Fit      -0.063736
 **** Fit      -0.063164
 **** Fit      -0.062578
 **** Fit      -0.063530
 **** Fit      -0.064183
 **** Fit      -0.064828
 **** Fit      -0.065429
 **** Fit      -0.065931
 **** Fit      -0.066268
 **** Fit      -0.066391
 **** Fit      -0.066280
 **** Fit      -0.065955
 **** Fit      -0.065466
 **** Fit      -0.064881
 **** Fit      -0.064257
 **** Fit      -0.063629
 **** Fit      -0.063007
 **** Fit      -0.063766
 **** Fit      -0.064439
 **** Fit      -0.065133
 **** Fit      -0.065840
 **** Fit      -0.066523
 **** Fit      -0.067110
 **** Fit      -0.067519
 **** Fit      -0.067688
 **** Fit      -0.067590
 **** Fit      -0.067248
 **** Fit      -0.066719
 **** Fit      -0.066081
 **** Fit      -0.065402
 **** Fit      -0.064727
 **** Fit      -0.064067
 **** Fit      -0.064673
 **** Fit      -0.065367
 **** Fit      -0.066100
 **** Fit      -0.066868
 **** Fit      -0.067627
 **** Fit      -0.068292
 **** Fit      -0.068768
 **** Fit      -0.068980
 **** Fit      -0.068904
 **** Fit      -0.068562
 **** Fit      -0.068011
 **** Fit      -0.067334
 **** Fit      -0.066607
 **** Fit      -0.065882
 **** Fit      -0.065175
 **** Fit      -0.064482
 **** Fit      -0.064937
 **** Fit      -0.065628
 **** Fit      -0.066346
 **** Fit      -0.067116
 **** Fit      -0.067934
 **** Fit      -0.068750
 **** Fit      -0.069467
 **** Fit      -0.069981
 **** Fit      -0.070219
 **** Fit      -0.070164
 **** Fit      -0.069839
 **** Fit      -0.069296
 **** Fit      -0.068606
 **** Fit      -0.067847
 **** Fit      -0.067077
 **** Fit      -0.066322
 **** Fit      -0.065582
 **** Fit      -0.065933
 **** Fit      -0.066650
 **** Fit      -0.067397
 **** Fit      -0.068199
 **** Fit      -0.069049
 **** Fit      -0.069887
 **** Fit      -0.070610
 **** Fit      -0.071110
 **** Fit      -0.071334
 **** Fit      -0.071283
 **** Fit      -0.070986
 **** Fit      -0.070479
 **** Fit      -0.069813
 **** Fit      -0.069054
 **** Fit      -0.068262
 **** Fit      -0.067473
 **** Fit      -0.066692
 **** Fit      -0.066993
 **** Fit      -0.067744
 **** Fit      -0.068520
 **** Fit      -0.069342
 **** Fit      -0.070193
 **** Fit      -0.071005
 **** Fit      -0.071667
 **** Fit      -0.072086
 **** Fit      -0.072234
 **** Fit      -0.072149
 **** Fit      -0.071875
 **** Fit      -0.071433
 **** Fit      -0.070840
 **** Fit      -0.070135
 **** Fit      -0.069367
 **** Fit      -0.068577
 **** Fit      -0.067778
 **** Fit      -0.068107
 **** Fit      -0.068894
 **** Fit      -0.069692
 **** Fit      -0.070510
 **** Fit      -0.071319
 **** Fit      -0.072041
 **** Fit      -0.072566
 **** Fit      -0.072817
 **** Fit      -0.072809
 **** Fit      -0.072633
 **** Fit      -0.072372
 **** Fit      -0.072032
 **** Fit      -0.071580
 **** Fit      -0.071004
 **** Fit      -0.070329
 **** Fit      -0.069591
 **** Fit      -0.070077
 **** Fit      -0.070878
 **** Fit      -0.071659
 **** Fit      -0.072376
 **** Fit      -0.072943
 **** Fit      -0.073252
 **** Fit      -0.073249
 **** Fit      -0.073002
 **** Fit      -0.072683
 **** Fit      -0.072431
 **** Fit      -0.072241
 **** Fit      -0.072007
 **** Fit      -0.071643
 **** Fit      -0.071132
 **** Fit      -0.070502
 **** Fit      -0.069782
 **** Fit      -0.071273
 **** Fit      -0.072058
 **** Fit      -0.072771
 **** Fit      -0.073356
 **** Fit      -0.073722
 **** Fit      -0.073767
 **** Fit      -0.073466
 **** Fit      -0.072946
 **** Fit      -0.072467
 **** Fit      -0.072232
 **** Fit      -0.072221
 **** Fit      -0.072246
 **** Fit      -0.072137
 **** Fit      -0.071831
 **** Fit      -0.071343
 **** Fit      -0.070708
 **** Fit      -0.073237
 **** Fit      -0.073868
 **** Fit      -0.074312
 **** Fit      -0.074477
 **** Fit      -0.074282
 **** Fit      -0.073729
 **** Fit      -0.072998
 **** Fit      -0.072405
 **** Fit      -0.072190
 **** Fit      -0.072320
 **** Fit      -0.072554
 **** Fit      -0.072661
 **** Fit      -0.072539
 **** Fit      -0.072184
 **** Fit      -0.071630
 **** Fit      -0.074442
 **** Fit      -0.075007
 **** Fit      -0.075337
 **** Fit      -0.075358
 **** Fit      -0.075013
 **** Fit      -0.074340
 **** Fit      -0.073535
 **** Fit      -0.072914
 **** Fit      -0.072707
 **** Fit      -0.072879
 **** Fit      -0.073191
 **** Fit      -0.073400
 **** Fit      -0.073379
 **** Fit      -0.073103
 **** Fit      -0.072599
 **** Fit      -0.076244
 **** Fit      -0.076520
 **** Fit      -0.076482
 **** Fit      -0.076107
 **** Fit      -0.075454
 **** Fit      -0.074710
 **** Fit      -0.074137
 **** Fit      -0.073920
 **** Fit      -0.074033
 **** Fit      -0.074284
 **** Fit      -0.074461
 **** Fit      -0.074434
 **** Fit      -0.074161
 **** Fit      -0.073651
 **** Fit      -0.077618
 **** Fit      -0.077906
 **** Fit      -0.077896
 **** Fit      -0.077588
 **** Fit      -0.077051
 **** Fit      -0.076439
 **** Fit      -0.075947
 **** Fit      -0.075706
 **** Fit      -0.075704
 **** Fit      -0.075805
 **** Fit      -0.075850
 **** Fit      -0.075724
 **** Fit      -0.075377
 **** Fit      -0.079493
 **** Fit      -0.079576
 **** Fit      -0.079394
 **** Fit      -0.079012
 **** Fit      -0.078547
 **** Fit      -0.078133
 **** Fit      -0.077860
 **** Fit      -0.077724
 **** Fit      -0.077642
 **** Fit      -0.077502
 **** Fit      -0.077216
 **** Fit      -0.076736
 **** Fit      -0.081237
 **** Fit      -0.081456
 **** Fit      -0.081428
 **** Fit      -0.081206
 **** Fit      -0.080873
 **** Fit      -0.080520
 **** Fit      -0.080209
 **** Fit      -0.079942
 **** Fit      -0.079672
 **** Fit      -0.079329
 **** Fit      -0.078849
 **** Fit      -0.083583
 **** Fit      -0.083512
 **** Fit      -0.083291
 **** Fit      -0.082982
 **** Fit      -0.082627
 **** Fit      -0.082235
 **** Fit      -0.081784
 **** Fit      -0.081235
 **** Fit      -0.085690
 **** Fit      -0.085411
 **** Fit      -0.085009
 **** Fit      -0.063993
 **** Fit      -0.063629
 **** Fit      -0.063170
 **** Fit      -0.064071
 **** Fit      -0.064603
 **** Fit      -0.065040
 **** Fit      -0.065338
 **** Fit      -0.065397
 **** Fit      -0.065156
 **** Fit      -0.064769
 **** Fit      -0.064278
 **** Fit      -0.063726
 **** Fit      -0.064449
 **** Fit      -0.065072
 **** Fit      -0.065649
 **** Fit      -0.066131
 **** Fit      -0.066465
 **** Fit      -0.066613
 **** Fit      -0.066560
 **** Fit      -0.066316
 **** Fit      -0.065916
 **** Fit      -0.065402
 **** Fit      -0.064820
 **** Fit      -0.064203
 **** Fit      -0.064767
 **** Fit      -0.065432
 **** Fit      -0.066088
 **** Fit      -0.066697
 **** Fit      -0.067207
 **** Fit      -0.067561
 **** Fit      -0.067722
 **** Fit      -0.067677
 **** Fit      -0.067439
 **** Fit      -0.067036
 **** Fit      -0.066513
 **** Fit      -0.065913
 **** Fit      -0.065271
 **** Fit      -0.065758
 **** Fit      -0.066444
 **** Fit      -0.067116
 **** Fit      -0.067736
 **** Fit      -0.068246
 **** Fit      -0.068594
 **** Fit      -0.068747
 **** Fit      -0.068700
 **** Fit      -0.068468
 **** Fit      -0.068077
 **** Fit      -0.067564
 **** Fit      -0.066965
 **** Fit      -0.066316
 **** Fit      -0.066783
 **** Fit      -0.067477
 **** Fit      -0.068144
 **** Fit      -0.068743
 **** Fit      -0.069218
 **** Fit      -0.069522
 **** Fit      -0.069635
 **** Fit      -0.069567
 **** Fit      -0.069340
 **** Fit      -0.068976
 **** Fit      -0.068497
 **** Fit      -0.067930
 **** Fit      -0.067300
 **** Fit      -0.067831
 **** Fit      -0.068516
 **** Fit      -0.069150
 **** Fit      -0.069692
 **** Fit      -0.070090
 **** Fit      -0.070307
 **** Fit      -0.070343
 **** Fit      -0.070231
 **** Fit      -0.070005
 **** Fit      -0.069684
 **** Fit      -0.069271
 **** Fit      -0.068772
 **** Fit      -0.068197
 **** Fit      -0.068889
 **** Fit      -0.069545
 **** Fit      -0.070120
 **** Fit      -0.070570
 **** Fit      -0.070850
 **** Fit      -0.070940
 **** Fit      -0.070866
 **** Fit      -0.070689
 **** Fit      -0.070463
 **** Fit      -0.070204
 **** Fit      -0.069889
 **** Fit      -0.069494
 **** Fit      -0.069008
 **** Fit      -0.068433
 **** Fit      -0.070564
 **** Fit      -0.071060
 **** Fit      -0.071396
 **** Fit      -0.071537
 **** Fit      -0.071481
 **** Fit      -0.071283
 **** Fit      -0.071035
 **** Fit      -0.070812
 **** Fit      -0.070624
 **** Fit      -0.070423
 **** Fit      -0.070149
 **** Fit      -0.069767
 **** Fit      -0.069270
 **** Fit      -0.071590
 **** Fit      -0.072006
 **** Fit      -0.072231
 **** Fit      -0.072243
 **** Fit      -0.072058
 **** Fit      -0.071755
 **** Fit      -0.071451
 **** Fit      -0.071233
 **** Fit      -0.071106
 **** Fit      -0.071000
 **** Fit      -0.070831
 **** Fit      -0.070543
 **** Fit      -0.070115
 **** Fit      -0.072657
 **** Fit      -0.073012
 **** Fit      -0.073156
 **** Fit      -0.073080
 **** Fit      -0.072817
 **** Fit      -0.072459
 **** Fit      -0.072128
 **** Fit      -0.071913
 **** Fit      -0.071813
 **** Fit      -0.071754
 **** Fit      -0.071641
 **** Fit      -0.071404
 **** Fit      -0.071014
 **** Fit      -0.074126
 **** Fit      -0.074237
 **** Fit      -0.074133
 **** Fit      -0.073856
 **** Fit      -0.073497
 **** Fit      -0.073169
 **** Fit      -0.072949
 **** Fit      -0.072837
 **** Fit      -0.072765
 **** Fit      -0.072644
 **** Fit      -0.072402
 **** Fit      -0.072005
 **** Fit      -0.075373
 **** Fit      -0.075503
 **** Fit      -0.075426
 **** Fit      -0.075188
 **** Fit      -0.074870
 **** Fit      -0.074564
 **** Fit      -0.074331
 **** Fit      -0.074174
 **** Fit      -0.074040
 **** Fit      -0.073853
 **** Fit      -0.073552
 **** Fit      -0.076938
 **** Fit      -0.076931
 **** Fit      -0.076767
 **** Fit      -0.076510
 **** Fit      -0.076232
 **** Fit      -0.075980
 **** Fit      -0.075758
 **** Fit      -0.075528
 **** Fit      -0.075237
 **** Fit      -0.074834
 **** Fit      -0.078587
 **** Fit      -0.078512
 **** Fit      -0.078322
 **** Fit      -0.078072
 **** Fit      -0.077794
 **** Fit      -0.077496
 **** Fit      -0.077156
 **** Fit      -0.080211
 **** Fit      -0.079982
 **** Fit      -0.079675
 **** Fit      -0.066419
 **** Fit      -0.066376
 **** Fit      -0.066193
 **** Fit      -0.065886
 **** Fit      -0.066971
 **** Fit      -0.067196
 **** Fit      -0.067280
 **** Fit      -0.067224
 **** Fit      -0.067040
 **** Fit      -0.066744
 **** Fit      -0.066354
 **** Fit      -0.067509
 **** Fit      -0.067820
 **** Fit      -0.067998
 **** Fit      -0.068040
 **** Fit      -0.067959
 **** Fit      -0.067774
 **** Fit      -0.067498
 **** Fit      -0.067139
 **** Fit      -0.066706
 **** Fit      -0.068367
 **** Fit      -0.068613
 **** Fit      -0.068723
 **** Fit      -0.068708
 **** Fit      -0.068594
 **** Fit      -0.068407
 **** Fit      -0.068157
 **** Fit      -0.067845
 **** Fit      -0.067463
 **** Fit      -0.067007
 **** Fit      -0.068894
 **** Fit      -0.069206
 **** Fit      -0.069377
 **** Fit      -0.069411
 **** Fit      -0.069334
 **** Fit      -0.069184
 **** Fit      -0.068994
 **** Fit      -0.068775
 **** Fit      -0.068514
 **** Fit      -0.068191
 **** Fit      -0.067786
 **** Fit      -0.069811
 **** Fit      -0.070063
 **** Fit      -0.070165
 **** Fit      -0.070131
 **** Fit      -0.069999
 **** Fit      -0.069818
 **** Fit      -0.069627
 **** Fit      -0.069433
 **** Fit      -0.069215
 **** Fit      -0.068940
 **** Fit      -0.068581
 **** Fit      -0.070983
 **** Fit      -0.071037
 **** Fit      -0.070958
 **** Fit      -0.070791
 **** Fit      -0.070591
 **** Fit      -0.070397
 **** Fit      -0.070214
 **** Fit      -0.070018
 **** Fit      -0.069768
 **** Fit      -0.069430
 **** Fit      -0.072001
 **** Fit      -0.072038
 **** Fit      -0.071945
 **** Fit      -0.071769
 **** Fit      -0.071563
 **** Fit      -0.071362
 **** Fit      -0.071173
 **** Fit      -0.070969
 **** Fit      -0.070712
 **** Fit      -0.073185
 **** Fit      -0.073108
 **** Fit      -0.072945
 **** Fit      -0.072742
 **** Fit      -0.072531
 **** Fit      -0.072317
 **** Fit      -0.072079
 **** Fit      -0.071781
 **** Fit      -0.074424
 **** Fit      -0.074289
 **** Fit      -0.074095
 **** Fit      -0.073870
 **** Fit      -0.073617
 **** Fit      -0.073323
 **** Fit      -0.065921
 **** Fit      -0.065859
 **** Fit      -0.065705
 **** Fit      -0.066639
 **** Fit      -0.066649
 **** Fit      -0.066569
 **** Fit      -0.066411
 **** Fit      -0.066184
 **** Fit      -0.067312
 **** Fit      -0.067384
 **** Fit      -0.067361
 **** Fit      -0.067260
 **** Fit      -0.067098
 **** Fit      -0.066883
 **** Fit      -0.066613
 **** Fit      -0.068118
 **** Fit      -0.068154
 **** Fit      -0.068100
 **** Fit      -0.067981
 **** Fit      -0.067815
 **** Fit      -0.067609
 **** Fit      -0.067357
 **** Fit      -0.068988
 **** Fit      -0.068914
 **** Fit      -0.068782
 **** Fit      -0.068610
 **** Fit      -0.068406
 **** Fit      -0.068160
 **** Fit      -0.069916
 **** Fit      -0.069834
 **** Fit      -0.069694
 **** Fit      -0.069516
 **** Fit      -0.069304
 **** Fit      -0.070727
 -----------------------------------------------------------------
 Leave Link  602 at Wed May 18 23:25:46 2016, MaxMem=  1073741824 cpu:        10.6

 Test job not archived.
 1\1\GINC-E09\SP\RHF\6-31G(d)\C12H14N1O4(1-)\WISE\18-May-2016\0\\# HF/6
 -31G* scf=tight iop(6/33=2) pop=chelpg\\Title Card Required\\-1,1\C\H,
 1,1.08473635\H,1,1.08338672,2,109.09547577\H,1,1.08409335,3,109.312012
 7,2,117.34587191,0\C,1,1.52067904,3,113.44959376,2,-121.14745898,0\O,5
 ,1.21238322,1,119.59277759,3,-176.2344704,0\N,5,1.33039419,1,115.41057
 806,6,179.49295637,0\H,7,0.99942609,5,121.18478865,1,10.03499517,0\C,7
 ,1.45287892,5,125.64062592,1,172.64598968,0\H,9,1.08541927,7,108.76593
 935,5,-50.83537154,0\C,9,1.54821512,7,112.1579871,5,69.21892546,0\H,11
 ,1.08204297,9,108.3258165,7,-18.76993724,0\H,11,1.0838235,9,108.897133
 98,7,97.77669855,0\C,11,1.51625028,9,114.70638301,7,-139.38803739,0\C,
 14,1.38666567,11,121.95193485,9,-79.71194444,0\H,15,1.07331695,14,118.
 4746774,11,3.01824271,0\C,15,1.3906936,14,121.53160714,11,-179.0327015
 2,0\H,17,1.07380208,15,118.85205796,14,-179.95651909,0\C,17,1.38485221
 ,15,119.88847174,14,-0.43565511,0\O,19,1.36368568,17,124.48157723,15,1
 79.74082194,0\C,20,1.39153274,19,119.04412787,17,2.49644125,0\H,21,1.0
 8597087,20,111.76499497,19,59.78424772,0\H,21,1.08190336,20,106.508931
 81,19,178.71078111,0\H,21,1.08632898,20,111.80605482,19,-62.4599413,0\
 C,19,1.38792749,17,119.42965409,15,-0.41386757,0\H,25,1.07534315,19,11
 8.81585608,17,-179.2202317,0\C,25,1.38178663,19,119.98654257,17,0.5059
 7777,0\H,27,1.0757573,25,119.35500502,19,-178.72385305,0\C,9,1.5648210
 9,7,107.3363803,5,-167.01741271,0\O,29,1.23549227,9,115.65443572,7,9.8
 11955,0\O,29,1.22920375,9,114.9238835,7,-170.33991265,0\\Version=AM64L
 -G09RevD.01\State=1-A\HF=-816.5303484\RMSD=5.631e-09\Dipole=-3.2430559
 ,0.0002367,0.0568648\Quadrupole=-23.4320724,13.3806698,10.0514026,8.33
 71061,5.9341492,-3.610717\PG=C01 [X(C12H14N1O4)]\\@


 Children are likely to live up to what you believe of them.
 -- Lady Bird Johnson
 Job cpu time:       0 days  0 hours  5 minutes 30.3 seconds.
 File lengths (MBytes):  RWF=     31 Int=      0 D2E=      0 Chk=      4 Scr=      1
 Normal termination of Gaussian 09 at Wed May 18 23:25:46 2016.
