 Entering Gaussian System, Link 0=/programs/g09/g09
 Input=/scratch2/Wise/temp/temp_05192016/CTYR_all_opt.com
 Output=/scratch2/Wise/temp/temp_05192016/CTYR_all_opt.log
 Initial command:
 /programs/g09/l1.exe "/tmp/Wise/CTYR_all_opt/Gau-25399.inp" -scrdir="/tmp/Wise/CTYR_all_opt/"
 Entering Link 1 = /programs/g09/l1.exe PID=     25400.
  
 Copyright (c) 1988,1990,1992,1993,1995,1998,2003,2009,2013,
            Gaussian, Inc.  All Rights Reserved.
  
 This is part of the Gaussian(R) 09 program.  It is based on
 the Gaussian(R) 03 system (copyright 2003, Gaussian, Inc.),
 the Gaussian(R) 98 system (copyright 1998, Gaussian, Inc.),
 the Gaussian(R) 94 system (copyright 1995, Gaussian, Inc.),
 the Gaussian 92(TM) system (copyright 1992, Gaussian, Inc.),
 the Gaussian 90(TM) system (copyright 1990, Gaussian, Inc.),
 the Gaussian 88(TM) system (copyright 1988, Gaussian, Inc.),
 the Gaussian 86(TM) system (copyright 1986, Carnegie Mellon
 University), and the Gaussian 82(TM) system (copyright 1983,
 Carnegie Mellon University). Gaussian is a federally registered
 trademark of Gaussian, Inc.
  
 This software contains proprietary and confidential information,
 including trade secrets, belonging to Gaussian, Inc.
  
 This software is provided under written license and may be
 used, copied, transmitted, or stored only in accord with that
 written license.
  
 The following legend is applicable only to US Government
 contracts under FAR:
  
                    RESTRICTED RIGHTS LEGEND
  
 Use, reproduction and disclosure by the US Government is
 subject to restrictions as set forth in subparagraphs (a)
 and (c) of the Commercial Computer Software - Restricted
 Rights clause in FAR 52.227-19.
  
 Gaussian, Inc.
 340 Quinnipiac St., Bldg. 40, Wallingford CT 06492
  
  
 ---------------------------------------------------------------
 Warning -- This program may not be used in any manner that
 competes with the business of Gaussian, Inc. or will provide
 assistance to any competitor of Gaussian, Inc.  The licensee
 of this program is prohibited from giving any competitor of
 Gaussian, Inc. access to this program.  By using this program,
 the user acknowledges that Gaussian, Inc. is engaged in the
 business of creating and licensing software in the field of
 computational chemistry and represents and warrants to the
 licensee that it is not a competitor of Gaussian, Inc. and that
 it will not use this program in any manner prohibited above.
 ---------------------------------------------------------------
  

 Cite this work as:
 Gaussian 09, Revision D.01,
 M. J. Frisch, G. W. Trucks, H. B. Schlegel, G. E. Scuseria, 
 M. A. Robb, J. R. Cheeseman, G. Scalmani, V. Barone, B. Mennucci, 
 G. A. Petersson, H. Nakatsuji, M. Caricato, X. Li, H. P. Hratchian, 
 A. F. Izmaylov, J. Bloino, G. Zheng, J. L. Sonnenberg, M. Hada, 
 M. Ehara, K. Toyota, R. Fukuda, J. Hasegawa, M. Ishida, T. Nakajima, 
 Y. Honda, O. Kitao, H. Nakai, T. Vreven, J. A. Montgomery, Jr., 
 J. E. Peralta, F. Ogliaro, M. Bearpark, J. J. Heyd, E. Brothers, 
 K. N. Kudin, V. N. Staroverov, T. Keith, R. Kobayashi, J. Normand, 
 K. Raghavachari, A. Rendell, J. C. Burant, S. S. Iyengar, J. Tomasi, 
 M. Cossi, N. Rega, J. M. Millam, M. Klene, J. E. Knox, J. B. Cross, 
 V. Bakken, C. Adamo, J. Jaramillo, R. Gomperts, R. E. Stratmann, 
 O. Yazyev, A. J. Austin, R. Cammi, C. Pomelli, J. W. Ochterski, 
 R. L. Martin, K. Morokuma, V. G. Zakrzewski, G. A. Voth, 
 P. Salvador, J. J. Dannenberg, S. Dapprich, A. D. Daniels, 
 O. Farkas, J. B. Foresman, J. V. Ortiz, J. Cioslowski, 
 and D. J. Fox, Gaussian, Inc., Wallingford CT, 2013.
 
 ******************************************
 Gaussian 09:  AM64L-G09RevD.01 24-Apr-2013
                18-May-2016 
 ******************************************
 %chk=CTYR_all_opt.chk
 %mem=8GB
 %nproc=8
 Will use up to    8 processors via shared memory.
 ----------------------------------
 # opt=z-matrix HF/6-31G* scf=tight
 ----------------------------------
 1/10=7,18=40,38=1/1,3;
 2/12=2,17=6,18=5,29=3,40=1/2;
 3/5=1,6=6,7=1,11=9,16=1,25=1,30=1,71=1/1,2,3;
 4//1;
 5/5=2,32=2,38=5/2;
 6/7=2,8=2,9=2,10=2,28=1/1;
 7/29=1/1,2,3,16;
 1/10=7,18=40/3(2);
 2/29=3/2;
 99//99;
 2/29=3/2;
 3/5=1,6=6,7=1,11=9,16=1,25=1,30=1,71=1/1,2,3;
 4/5=5,16=3,69=1/1;
 5/5=2,32=2,38=5/2;
 7//1,2,3,16;
 1/18=40/3(-5);
 2/29=3/2;
 6/7=2,8=2,9=2,10=2,19=2,28=1/1;
 99/9=1/99;
 -------------------
 Title Card Required
 -------------------
 Symbolic Z-matrix:
 Charge = -1 Multiplicity = 1
 C
 H                    1    B1
 H                    1    B2       2    A1
 H                    1    B3       3    A2       2    D1       0
 C                    1    B4       4    A3       3    D2       0
 O                    5    B5       1    A4       4    D3       0
 N                    5    B6       1    A5       6    D4       0
 H                    7    B7       5    A6       1    D5       0
 C                    7    B8       5    A7       1    D6       0
 H                    9    B9       7    A8       5    D7       0
 C                    9    B10      7    A9       5    D8       0
 H                    11   B11      9    A10      7    D9       0
 H                    11   B12      9    A11      7    D10      0
 C                    11   B13      9    A12      7    D11      0
 C                    14   B14      11   A13      9    D12      0
 H                    15   B15      14   A14      11   D13      0
 C                    15   B16      14   A15      11   D14      0
 H                    17   B17      15   A16      14   D15      0
 C                    17   B18      15   A17      14   D16      0
 O                    19   B19      17   A18      15   D17      0
 C                    20   B20      19   A19      17   D18      0
 H                    21   B21      20   A20      19   D19      0
 H                    21   B22      20   A21      19   D20      0
 H                    21   B23      20   A22      19   D21      0
 C                    19   B24      17   A23      15   D22      0
 H                    25   B25      19   A24      17   D23      0
 C                    25   B26      19   A25      17   D24      0
 H                    27   B27      25   A26      19   D25      0
 C                    9    B28      7    A27      5    D26      0
 O                    29   B29      9    A28      7    D27      0
 O                    29   B30      9    A29      7    D28      0
       Variables:
  B1                    1.08533                  
  B2                    1.08512                  
  B3                    1.0794                   
  B4                    1.51438                  
  B5                    1.20349                  
  B6                    1.35046                  
  B7                    0.99578                  
  B8                    1.44262                  
  B9                    1.08147                  
  B10                   1.54778                  
  B11                   1.08296                  
  B12                   1.0851                   
  B13                   1.51318                  
  B14                   1.38242                  
  B15                   1.07643                  
  B16                   1.39207                  
  B17                   1.07275                  
  B18                   1.38393                  
  B19                   1.34875                  
  B20                   1.39881                  
  B21                   1.08516                  
  B22                   1.0796                   
  B23                   1.08491                  
  B24                   1.3943                   
  B25                   1.07421                  
  B26                   1.3766                   
  B27                   1.07687                  
  B28                   1.52676                  
  B29                   1.20566                  
  B30                   1.34328                  
  A1                  107.94462                  
  A2                  109.89912                  
  A3                  109.37736                  
  A4                  122.65724                  
  A5                  114.95707                  
  A6                  121.33254                  
  A7                  122.14789                  
  A8                  108.23415                  
  A9                  111.2978                   
  A10                 106.32705                  
  A11                 108.43422                  
  A12                 114.38673                  
  A13                 122.07419                  
  A14                 119.59503                  
  A15                 121.91606                  
  A16                 119.10929                  
  A17                 119.60925                  
  A18                 124.80373                  
  A19                 119.71801                  
  A20                 111.46573                  
  A21                 106.24898                  
  A22                 111.43263                  
  A23                 119.33349                  
  A24                 118.5692                   
  A25                 120.21534                  
  A26                 119.19678                  
  A27                 106.9989                   
  A28                 120.76557                  
  A29                 116.14564                  
  D1                  119.85179                  
  D2                 -121.13945                  
  D3                   -0.78638                  
  D4                 -179.7561                   
  D5                   -0.41006                  
  D6                  178.92168                  
  D7                  -38.16242                  
  D8                   81.52787                  
  D9                  -48.90985                  
  D10                  66.24542                  
  D11                -169.96231                  
  D12                -107.2357                   
  D13                  -0.5946                   
  D14                 179.53938                  
  D15                 179.75337                  
  D16                  -0.05236                  
  D17                -179.85448                  
  D18                  -2.04587                  
  D19                  62.38874                  
  D20                -178.84431                  
  D21                 -60.01913                  
  D22                   0.15706                  
  D23                 179.3749                   
  D24                   0.07831                  
  D25                 178.95613                  
  D26                -156.74461                  
  D27                 -30.61235                  
  D28                 149.33032                  
 

 GradGradGradGradGradGradGradGradGradGradGradGradGradGradGradGradGradGrad
 Berny optimization.
 Initialization pass.
                       ----------------------------
                       !    Initial Parameters    !
                       ! (Angstroms and Degrees)  !
 ----------------------                            ----------------------
 !      Name          Value   Derivative information (Atomic Units)     !
 ------------------------------------------------------------------------
 !       B1          1.0853   estimate D2E/DX2                          !
 !       B2          1.0851   estimate D2E/DX2                          !
 !       B3          1.0794   estimate D2E/DX2                          !
 !       B4          1.5144   estimate D2E/DX2                          !
 !       B5          1.2035   estimate D2E/DX2                          !
 !       B6          1.3505   estimate D2E/DX2                          !
 !       B7          0.9958   estimate D2E/DX2                          !
 !       B8          1.4426   estimate D2E/DX2                          !
 !       B9          1.0815   estimate D2E/DX2                          !
 !       B10         1.5478   estimate D2E/DX2                          !
 !       B11         1.083    estimate D2E/DX2                          !
 !       B12         1.0851   estimate D2E/DX2                          !
 !       B13         1.5132   estimate D2E/DX2                          !
 !       B14         1.3824   estimate D2E/DX2                          !
 !       B15         1.0764   estimate D2E/DX2                          !
 !       B16         1.3921   estimate D2E/DX2                          !
 !       B17         1.0727   estimate D2E/DX2                          !
 !       B18         1.3839   estimate D2E/DX2                          !
 !       B19         1.3487   estimate D2E/DX2                          !
 !       B20         1.3988   estimate D2E/DX2                          !
 !       B21         1.0852   estimate D2E/DX2                          !
 !       B22         1.0796   estimate D2E/DX2                          !
 !       B23         1.0849   estimate D2E/DX2                          !
 !       B24         1.3943   estimate D2E/DX2                          !
 !       B25         1.0742   estimate D2E/DX2                          !
 !       B26         1.3766   estimate D2E/DX2                          !
 !       B27         1.0769   estimate D2E/DX2                          !
 !       B28         1.5268   estimate D2E/DX2                          !
 !       B29         1.2057   estimate D2E/DX2                          !
 !       B30         1.3433   estimate D2E/DX2                          !
 !       A1        107.9446   estimate D2E/DX2                          !
 !       A2        109.8991   estimate D2E/DX2                          !
 !       A3        109.3774   estimate D2E/DX2                          !
 !       A4        122.6572   estimate D2E/DX2                          !
 !       A5        114.9571   estimate D2E/DX2                          !
 !       A6        121.3325   estimate D2E/DX2                          !
 !       A7        122.1479   estimate D2E/DX2                          !
 !       A8        108.2341   estimate D2E/DX2                          !
 !       A9        111.2978   estimate D2E/DX2                          !
 !       A10       106.3271   estimate D2E/DX2                          !
 !       A11       108.4342   estimate D2E/DX2                          !
 !       A12       114.3867   estimate D2E/DX2                          !
 !       A13       122.0742   estimate D2E/DX2                          !
 !       A14       119.595    estimate D2E/DX2                          !
 !       A15       121.9161   estimate D2E/DX2                          !
 !       A16       119.1093   estimate D2E/DX2                          !
 !       A17       119.6092   estimate D2E/DX2                          !
 !       A18       124.8037   estimate D2E/DX2                          !
 !       A19       119.718    estimate D2E/DX2                          !
 !       A20       111.4657   estimate D2E/DX2                          !
 !       A21       106.249    estimate D2E/DX2                          !
 !       A22       111.4326   estimate D2E/DX2                          !
 !       A23       119.3335   estimate D2E/DX2                          !
 !       A24       118.5692   estimate D2E/DX2                          !
 !       A25       120.2153   estimate D2E/DX2                          !
 !       A26       119.1968   estimate D2E/DX2                          !
 !       A27       106.9989   estimate D2E/DX2                          !
 !       A28       120.7656   estimate D2E/DX2                          !
 !       A29       116.1456   estimate D2E/DX2                          !
 !       D1        119.8518   estimate D2E/DX2                          !
 !       D2       -121.1394   estimate D2E/DX2                          !
 !       D3         -0.7864   estimate D2E/DX2                          !
 !       D4       -179.7561   estimate D2E/DX2                          !
 !       D5         -0.4101   estimate D2E/DX2                          !
 !       D6        178.9217   estimate D2E/DX2                          !
 !       D7        -38.1624   estimate D2E/DX2                          !
 !       D8         81.5279   estimate D2E/DX2                          !
 !       D9        -48.9098   estimate D2E/DX2                          !
 !       D10        66.2454   estimate D2E/DX2                          !
 !       D11      -169.9623   estimate D2E/DX2                          !
 !       D12      -107.2357   estimate D2E/DX2                          !
 !       D13        -0.5946   estimate D2E/DX2                          !
 !       D14       179.5394   estimate D2E/DX2                          !
 !       D15       179.7534   estimate D2E/DX2                          !
 !       D16        -0.0524   estimate D2E/DX2                          !
 !       D17      -179.8545   estimate D2E/DX2                          !
 !       D18        -2.0459   estimate D2E/DX2                          !
 !       D19        62.3887   estimate D2E/DX2                          !
 !       D20      -178.8443   estimate D2E/DX2                          !
 !       D21       -60.0191   estimate D2E/DX2                          !
 !       D22         0.1571   estimate D2E/DX2                          !
 !       D23       179.3749   estimate D2E/DX2                          !
 !       D24         0.0783   estimate D2E/DX2                          !
 !       D25       178.9561   estimate D2E/DX2                          !
 !       D26      -156.7446   estimate D2E/DX2                          !
 !       D27       -30.6124   estimate D2E/DX2                          !
 !       D28       149.3303   estimate D2E/DX2                          !
 ------------------------------------------------------------------------
 Trust Radius=3.00D-01 FncErr=1.00D-07 GrdErr=1.00D-07
 Number of steps in this run=     97 maximum allowed number of steps=    174.
 GradGradGradGradGradGradGradGradGradGradGradGradGradGradGradGradGradGrad

 ---------------------------------------------------------------------------------------------------
                            Z-MATRIX (ANGSTROMS AND DEGREES)
   CD    Cent   Atom    N1       Length/X        N2       Alpha/Y        N3        Beta/Z          J
 ---------------------------------------------------------------------------------------------------
      1      1  C 
      2      2  H        1   1.085327(     1)
      3      3  H        1   1.085116(     2)      2  107.945(    31)
      4      4  H        1   1.079397(     3)      3  109.899(    32)      2  119.852(    60)      0
      5      5  C        1   1.514378(     4)      4  109.377(    33)      3 -121.139(    61)      0
      6      6  O        5   1.203487(     5)      1  122.657(    34)      4   -0.786(    62)      0
      7      7  N        5   1.350456(     6)      1  114.957(    35)      6 -179.756(    63)      0
      8      8  H        7   0.995780(     7)      5  121.333(    36)      1   -0.410(    64)      0
      9      9  C        7   1.442616(     8)      5  122.148(    37)      1  178.922(    65)      0
     10     10  H        9   1.081472(     9)      7  108.234(    38)      5  -38.162(    66)      0
     11     11  C        9   1.547778(    10)      7  111.298(    39)      5   81.528(    67)      0
     12     12  H       11   1.082956(    11)      9  106.327(    40)      7  -48.910(    68)      0
     13     13  H       11   1.085102(    12)      9  108.434(    41)      7   66.245(    69)      0
     14     14  C       11   1.513180(    13)      9  114.387(    42)      7 -169.962(    70)      0
     15     15  C       14   1.382423(    14)     11  122.074(    43)      9 -107.236(    71)      0
     16     16  H       15   1.076430(    15)     14  119.595(    44)     11   -0.595(    72)      0
     17     17  C       15   1.392069(    16)     14  121.916(    45)     11  179.539(    73)      0
     18     18  H       17   1.072749(    17)     15  119.109(    46)     14  179.753(    74)      0
     19     19  C       17   1.383930(    18)     15  119.609(    47)     14   -0.052(    75)      0
     20     20  O       19   1.348747(    19)     17  124.804(    48)     15 -179.854(    76)      0
     21     21  C       20   1.398814(    20)     19  119.718(    49)     17   -2.046(    77)      0
     22     22  H       21   1.085161(    21)     20  111.466(    50)     19   62.389(    78)      0
     23     23  H       21   1.079596(    22)     20  106.249(    51)     19 -178.844(    79)      0
     24     24  H       21   1.084906(    23)     20  111.433(    52)     19  -60.019(    80)      0
     25     25  C       19   1.394301(    24)     17  119.333(    53)     15    0.157(    81)      0
     26     26  H       25   1.074208(    25)     19  118.569(    54)     17  179.375(    82)      0
     27     27  C       25   1.376605(    26)     19  120.215(    55)     17    0.078(    83)      0
     28     28  H       27   1.076873(    27)     25  119.197(    56)     19  178.956(    84)      0
     29     29  C        9   1.526757(    28)      7  106.999(    57)      5 -156.745(    85)      0
     30     30  O       29   1.205664(    29)      9  120.766(    58)      7  -30.612(    86)      0
     31     31  O       29   1.343284(    30)      9  116.146(    59)      7  149.330(    87)      0
 ---------------------------------------------------------------------------------------------------
                         Z-Matrix orientation:                         
 ---------------------------------------------------------------------
 Center     Atomic      Atomic             Coordinates (Angstroms)
 Number     Number       Type             X           Y           Z
 ---------------------------------------------------------------------
      1          6           0        0.000000    0.000000    0.000000
      2          1           0        0.000000    0.000000    1.085327
      3          1           0        1.032330    0.000000   -0.334322
      4          1           0       -0.505168    0.880282   -0.367432
      5          6           0       -0.713885   -1.236484   -0.504792
      6          8           0       -1.698733   -1.181750   -1.194327
      7          7           0       -0.165362   -2.408614   -0.118831
      8          1           0        0.651491   -2.435624    0.450027
      9          6           0       -0.732649   -3.681407   -0.492092
     10          1           0       -1.810110   -3.594395   -0.459110
     11          6           0       -0.305034   -4.089699   -1.922498
     12          1           0       -0.487166   -3.227804   -2.552385
     13          1           0        0.764987   -4.269984   -1.922440
     14          6           0       -1.043972   -5.287920   -2.477432
     15          6           0       -0.440207   -6.523989   -2.614154
     16          1           0        0.590383   -6.646730   -2.328635
     17          6           0       -1.125922   -7.626478   -3.116319
     18          1           0       -0.612040   -8.563764   -3.206937
     19          6           0       -2.451286   -7.494354   -3.492103
     20          8           0       -3.214065   -8.490459   -3.987140
     21          6           0       -2.655075   -9.756557   -4.190131
     22          1           0       -2.316703  -10.195479   -3.257164
     23          1           0       -3.440122  -10.370313   -4.605501
     24          1           0       -1.826254   -9.716560   -4.889042
     25          6           0       -3.077340   -6.255123   -3.363893
     26          1           0       -4.103328   -6.163915   -3.668771
     27          6           0       -2.381298   -5.175145   -2.869712
     28          1           0       -2.875934   -4.221634   -2.793505
     29          6           0       -0.257722   -4.701585    0.539735
     30          8           0        0.809851   -4.575439    1.085629
     31          8           0       -1.093417   -5.722954    0.790398
 ---------------------------------------------------------------------
                    Distance matrix (angstroms):
                    1          2          3          4          5
     1  C    0.000000
     2  H    1.085327   0.000000
     3  H    1.085116   1.755308   0.000000
     4  H    1.079397   1.772174   1.771974   0.000000
     5  C    1.514378   2.137055   2.146443   2.131462   0.000000
     6  O    2.389277   3.078807   3.097555   2.521969   1.203487
     7  N    2.417206   2.697918   2.698578   3.315736   1.350456
     8  H    2.561099   2.600060   2.586988   3.605736   2.052770
     9  C    3.785721   4.071582   4.085682   4.569058   2.445027
    10  H    4.050551   4.310622   4.584181   4.661976   2.600681
    11  C    4.529314   5.085833   4.586555   5.211429   3.212146
    12  H    4.143756   4.887637   4.200879   4.653032   2.865203
    13  H    4.744865   5.278696   4.563590   5.527801   3.660451
    14  C    5.932086   6.461054   6.071742   6.541339   4.518229
    15  C    7.042018   7.512814   7.066006   7.737907   5.699299
    16  H    7.067539   7.495512   6.953533   7.855091   5.856473
    17  C    8.315185   8.779789   8.400043   8.961399   6.915335
    18  H    9.164992   9.598759   9.181172   9.862262   7.810312
    19  C    8.623742   9.117401   8.847175   9.147976   7.148672
    20  O    9.915411  10.399424  10.171668  10.404383   8.426019
    21  C   10.945183  11.404836  11.120010  11.505541   9.483754
    22  H   10.950983  11.321313  11.122357  11.588990   9.508321
    23  H   11.857001  12.319227  12.074320  12.375422  10.376657
    24  H   11.029482  11.551616  11.105337  11.596693   9.610967
    25  C    7.740307   8.269954   8.074296   8.155296   6.240762
    26  H    8.263839   8.799580   8.688348   8.571249   6.765994
    27  C    6.378711   6.935059   6.697999   6.815385   4.887347
    28  H    5.822101   6.413932   6.256541   6.126655   4.338638
    29  C    4.739476   4.740147   4.953091   5.660514   3.647745
    30  O    4.771697   4.646558   4.795873   5.797030   3.999978
    31  O    5.879838   5.833930   6.207737   6.729735   4.685080
                    6          7          8          9         10
     6  O    0.000000
     7  N    2.238999   0.000000
     8  H    3.130440   0.995780   0.000000
     9  C    2.770332   1.442616   2.086961   0.000000
    10  H    2.524640   2.055983   2.868582   1.081472   0.000000
    11  C    3.305874   2.469569   3.046273   1.547778   2.156869
    12  H    2.738349   2.587820   3.307350   2.123870   2.503272
    13  H    4.017120   2.753771   3.001059   2.152959   3.037907
    14  C    4.351517   3.824311   4.424952   2.572816   2.743832
    15  C    5.669155   4.820632   5.224533   3.559346   3.886305
    16  H    6.032637   4.839009   5.045603   3.730475   4.309783
    17  C    6.749569   6.093744   6.543927   4.754452   4.877147
    18  H    7.728236   6.900854   7.247344   5.587695   5.803494
    19  C    6.759814   6.516837   7.124490   5.147071   4.981950
    20  O    7.969521   7.826062   8.443459   6.442031   6.195927
    21  C    9.133277   8.761645   9.276880   7.367406   7.253049
    22  H    9.267389   8.666757   9.097736   7.251758   7.187493
    23  H    9.954810   9.707879  10.259579   8.306143   8.109412
    24  H    9.301084   8.883668   9.362527   7.546669   7.556815
    25  C    5.687415   5.814265   6.560392   4.513184   4.138007
    26  H    6.060275   6.497072   7.312521   5.255057   4.707781
    27  C    4.384064   4.486805   5.265307   3.256129   2.938712
    28  H    3.630987   4.217597   5.114006   3.190927   2.641743
    29  C    4.180039   2.387459   2.443214   1.526757   2.152550
    30  O    4.796699   2.664000   2.237828   2.380715   3.195757
    31  O    4.992802   3.559893   3.737257   2.437796   2.570152
                   11         12         13         14         15
    11  C    0.000000
    12  H    1.082956   0.000000
    13  H    1.085102   1.746670   0.000000
    14  C    1.513180   2.135352   2.148614   0.000000
    15  C    2.534251   3.297098   2.647924   1.382423   0.000000
    16  H    2.739548   3.591689   2.417520   2.130638   1.076430
    17  C    3.822024   4.480442   4.033229   2.425643   1.392069
    18  H    4.664900   5.377406   4.688569   3.383769   2.131103
    19  C    4.319923   4.790020   4.817138   2.806856   2.399342
    20  O    5.664971   6.098363   6.156967   4.152683   3.666930
    21  C    6.540500   7.071539   6.851404   5.049526   4.223605
    22  H    6.565721   7.238261   6.811006   5.129519   4.173073
    23  H    7.514879   7.996917   7.880088   6.008405   5.268696
    24  H    6.540341   7.025459   6.721640   5.103007   4.157974
    25  C    3.801626   4.065982   4.558732   2.419892   2.754790
    26  H    4.666786   4.789959   5.507917   3.397987   3.828881
    27  C    2.527110   2.735064   3.408189   1.398229   2.377504
    28  H    2.717644   2.598471   3.743981   2.143117   3.356452
    29  C    2.537564   3.433057   2.700837   3.172582   3.647119
    30  O    3.244647   4.090662   3.023871   4.079178   4.364389
    31  O    3.263261   4.215152   3.595035   3.297031   3.557993
                   16         17         18         19         20
    16  H    0.000000
    17  C    2.127452   0.000000
    18  H    2.427396   1.072749   0.000000
    19  C    3.365096   1.383930   2.146575   0.000000
    20  O    4.541343   2.421804   2.717466   1.348747   0.000000
    21  C    4.865099   2.833482   2.561917   2.376202   1.398814
    22  H    4.680484   2.835060   2.360274   2.714662   2.060393
    23  H    5.940889   3.886106   3.635609   3.238610   1.991815
    24  H    4.671153   2.828684   2.373338   2.698204   2.059799
    25  C    3.831097   2.397903   3.381148   1.394301   2.324620
    26  H    4.905099   3.362922   4.261650   2.128502   2.510966
    27  C    3.359942   2.765107   3.837542   2.402290   3.596310
    28  H    4.255883   3.841837   4.914289   3.373286   4.445443
    29  C    3.567971   4.761880   5.392543   5.372802   6.602130
    30  O    3.999451   5.541879   6.029480   6.333302   7.566523
    31  O    3.662910   4.345906   4.927536   4.829231   5.914482
                   21         22         23         24         25
    21  C    0.000000
    22  H    1.085161   0.000000
    23  H    1.079596   1.763703   0.000000
    24  H    1.084906   1.770008   1.764188   0.000000
    25  C    3.622295   4.014520   4.313698   3.984074   0.000000
    26  H    3.908494   4.428878   4.360170   4.392654   1.074208
    27  C    4.775751   5.035677   5.578874   5.001021   1.376605
    28  H    5.712680   6.017853   6.434897   5.973886   2.121552
    29  C    7.326096   6.988471   8.290694   7.555255   5.059846
    30  O    8.165987   7.760158   9.166886   8.311249   6.142462
    31  O    6.596544   6.154890   7.498046   6.981545   4.634359
                   26         27         28         29         30
    26  H    0.000000
    27  C    2.140455   0.000000
    28  H    2.458668   1.076873   0.000000
    29  C    5.885459   4.044523   4.265662   0.000000
    30  O    7.019039   5.117402   5.362636   1.205664   0.000000
    31  O    5.397981   3.918563   4.275007   1.343284   2.241960
                   31
    31  O    0.000000
 Stoichiometry    C12H14NO4(1-)
 Framework group  C1[X(C12H14NO4)]
 Deg. of freedom    87
 Full point group                 C1      NOp   1
 Largest Abelian subgroup         C1      NOp   1
 Largest concise Abelian subgroup C1      NOp   1
                         Standard orientation:                         
 ---------------------------------------------------------------------
 Center     Atomic      Atomic             Coordinates (Angstroms)
 Number     Number       Type             X           Y           Z
 ---------------------------------------------------------------------
      1          6           0        5.227985   -0.964435    0.301070
      2          1           0        5.735337   -0.239142   -0.327006
      3          1           0        5.355860   -0.659249    1.334504
      4          1           0        5.656666   -1.943692    0.151451
      5          6           0        3.756782   -1.000051   -0.056188
      6          8           0        3.209342   -1.994676   -0.455452
      7          7           0        3.103526    0.171283    0.101811
      8          1           0        3.571603    0.984279    0.435755
      9          6           0        1.703660    0.318224   -0.214296
     10          1           0        1.495592   -0.258404   -1.105245
     11          6           0        0.809709   -0.198381    0.938782
     12          1           0        1.189174   -1.177697    1.202867
     13          1           0        0.952818    0.446851    1.799388
     14          6           0       -0.659686   -0.300984    0.592277
     15          6           0       -1.595786    0.583848    1.094155
     16          1           0       -1.281747    1.368601    1.760671
     17          6           0       -2.945442    0.492101    0.765724
     18          1           0       -3.633733    1.200481    1.184346
     19          6           0       -3.374933   -0.508976   -0.087882
     20          8           0       -4.653100   -0.692830   -0.477247
     21          6           0       -5.657729    0.140994    0.024886
     22          1           0       -5.497184    1.174595   -0.264024
     23          1           0       -6.583586   -0.207357   -0.407513
     24          1           0       -5.722705    0.076745    1.105937
     25          6           0       -2.446291   -1.412615   -0.602795
     26          1           0       -2.794603   -2.190933   -1.256112
     27          6           0       -1.116436   -1.308768   -0.262588
     28          1           0       -0.415953   -2.025679   -0.656312
     29          6           0        1.459714    1.801487   -0.481519
     30          8           0        2.114730    2.644867    0.078203
     31          8           0        0.488841    2.092259   -1.363148
 ---------------------------------------------------------------------
 Rotational constants (GHZ):      1.0257625      0.2127789      0.1892510
 Standard basis: 6-31G(d) (6D, 7F)
 There are   283 symmetry adapted cartesian basis functions of A   symmetry.
 There are   283 symmetry adapted basis functions of A   symmetry.
   283 basis functions,   532 primitive gaussians,   283 cartesian basis functions
    63 alpha electrons       63 beta electrons
       nuclear repulsion energy      1170.5837876082 Hartrees.
 NAtoms=   31 NActive=   31 NUniq=   31 SFac= 1.00D+00 NAtFMM=   60 NAOKFM=F Big=F
 Integral buffers will be    131072 words long.
 Raffenetti 1 integral format.
 Two-electron integral symmetry is turned on.
 One-electron integrals computed using PRISM.
 NBasis=   283 RedAO= T EigKep=  3.96D-04  NBF=   283
 NBsUse=   283 1.00D-06 EigRej= -1.00D+00 NBFU=   283
 ExpMin= 1.61D-01 ExpMax= 5.48D+03 ExpMxC= 8.25D+02 IAcc=1 IRadAn=         1 AccDes= 0.00D+00
 Harris functional with IExCor=  205 and IRadAn=       1 diagonalized for initial guess.
 HarFok:  IExCor=  205 AccDes= 0.00D+00 IRadAn=         1 IDoV= 1 UseB2=F ITyADJ=14
 ICtDFT=  3500011 ScaDFX=  1.000000  1.000000  1.000000  1.000000
 FoFCou: FMM=F IPFlag=           0 FMFlag=      100000 FMFlg1=           0
         NFxFlg=           0 DoJE=T BraDBF=F KetDBF=T FulRan=T
         wScrn=  0.000000 ICntrl=     500 IOpCl=  0 I1Cent=   200000004 NGrid=           0
         NMat0=    1 NMatS0=      1 NMatT0=    0 NMatD0=    1 NMtDS0=    0 NMtDT0=    0
 Petite list used in FoFCou.
 Keep R1 ints in memory in canonical form, NReq=819193621.
 Requested convergence on RMS density matrix=1.00D-08 within 128 cycles.
 Requested convergence on MAX density matrix=1.00D-06.
 Requested convergence on             energy=1.00D-06.
 No special actions if energy rises.
 SCF Done:  E(RHF) =  -816.503099118     A.U. after   15 cycles
            NFock= 15  Conv=0.73D-08     -V/T= 2.0015

 **********************************************************************

            Population analysis using the SCF density.

 **********************************************************************

 Orbital symmetries:
       Occupied  (A) (A) (A) (A) (A) (A) (A) (A) (A) (A) (A) (A)
                 (A) (A) (A) (A) (A) (A) (A) (A) (A) (A) (A) (A)
                 (A) (A) (A) (A) (A) (A) (A) (A) (A) (A) (A) (A)
                 (A) (A) (A) (A) (A) (A) (A) (A) (A) (A) (A) (A)
                 (A) (A) (A) (A) (A) (A) (A) (A) (A) (A) (A) (A)
                 (A) (A) (A)
       Virtual   (A) (A) (A) (A) (A) (A) (A) (A) (A) (A) (A) (A)
                 (A) (A) (A) (A) (A) (A) (A) (A) (A) (A) (A) (A)
                 (A) (A) (A) (A) (A) (A) (A) (A) (A) (A) (A) (A)
                 (A) (A) (A) (A) (A) (A) (A) (A) (A) (A) (A) (A)
                 (A) (A) (A) (A) (A) (A) (A) (A) (A) (A) (A) (A)
                 (A) (A) (A) (A) (A) (A) (A) (A) (A) (A) (A) (A)
                 (A) (A) (A) (A) (A) (A) (A) (A) (A) (A) (A) (A)
                 (A) (A) (A) (A) (A) (A) (A) (A) (A) (A) (A) (A)
                 (A) (A) (A) (A) (A) (A) (A) (A) (A) (A) (A) (A)
                 (A) (A) (A) (A) (A) (A) (A) (A) (A) (A) (A) (A)
                 (A) (A) (A) (A) (A) (A) (A) (A) (A) (A) (A) (A)
                 (A) (A) (A) (A) (A) (A) (A) (A) (A) (A) (A) (A)
                 (A) (A) (A) (A) (A) (A) (A) (A) (A) (A) (A) (A)
                 (A) (A) (A) (A) (A) (A) (A) (A) (A) (A) (A) (A)
                 (A) (A) (A) (A) (A) (A) (A) (A) (A) (A) (A) (A)
                 (A) (A) (A) (A) (A) (A) (A) (A) (A) (A) (A) (A)
                 (A) (A) (A) (A) (A) (A) (A) (A) (A) (A) (A) (A)
                 (A) (A) (A) (A) (A) (A) (A) (A) (A) (A) (A) (A)
                 (A) (A) (A) (A)
 The electronic state is 1-A.
 Alpha  occ. eigenvalues --  -20.49098 -20.40190 -20.31616 -20.26858 -15.44350
 Alpha  occ. eigenvalues --  -11.22720 -11.19744 -11.18485 -11.14069 -11.13093
 Alpha  occ. eigenvalues --  -11.11612 -11.11574 -11.11485 -11.11186 -11.11016
 Alpha  occ. eigenvalues --  -11.11001 -11.09636  -1.32015  -1.26932  -1.18869
 Alpha  occ. eigenvalues --   -1.09756  -1.03831  -1.02374  -0.94190  -0.91100
 Alpha  occ. eigenvalues --   -0.90325  -0.87285  -0.82823  -0.74834  -0.72264
 Alpha  occ. eigenvalues --   -0.67953  -0.65371  -0.61804  -0.59241  -0.56833
 Alpha  occ. eigenvalues --   -0.56765  -0.54433  -0.52853  -0.51204  -0.51108
 Alpha  occ. eigenvalues --   -0.50251  -0.48342  -0.47276  -0.46802  -0.45331
 Alpha  occ. eigenvalues --   -0.44606  -0.43613  -0.42676  -0.41808  -0.40626
 Alpha  occ. eigenvalues --   -0.38381  -0.37634  -0.36977  -0.35779  -0.34968
 Alpha  occ. eigenvalues --   -0.33192  -0.29971  -0.26016  -0.22310  -0.20907
 Alpha  occ. eigenvalues --   -0.19305  -0.17452  -0.16898
 Alpha virt. eigenvalues --    0.25753   0.27596   0.31924   0.32796   0.34153
 Alpha virt. eigenvalues --    0.35719   0.38575   0.38865   0.39343   0.40068
 Alpha virt. eigenvalues --    0.40865   0.40999   0.42159   0.42621   0.43401
 Alpha virt. eigenvalues --    0.44543   0.45686   0.46970   0.48086   0.50286
 Alpha virt. eigenvalues --    0.51509   0.54104   0.56549   0.58060   0.59547
 Alpha virt. eigenvalues --    0.61188   0.62670   0.63177   0.64469   0.65836
 Alpha virt. eigenvalues --    0.69273   0.70049   0.75048   0.77013   0.80954
 Alpha virt. eigenvalues --    0.82234   0.82992   0.84553   0.84961   0.85885
 Alpha virt. eigenvalues --    0.87060   0.89241   0.89502   0.92203   0.93070
 Alpha virt. eigenvalues --    0.93567   0.94446   0.94707   0.94917   0.96759
 Alpha virt. eigenvalues --    0.97809   0.99278   1.00325   1.01696   1.02415
 Alpha virt. eigenvalues --    1.03547   1.05337   1.07927   1.08538   1.09239
 Alpha virt. eigenvalues --    1.09722   1.12929   1.14199   1.14936   1.18111
 Alpha virt. eigenvalues --    1.19650   1.20549   1.21415   1.21858   1.22284
 Alpha virt. eigenvalues --    1.22375   1.23202   1.23584   1.25085   1.26372
 Alpha virt. eigenvalues --    1.27047   1.27466   1.28844   1.29424   1.29540
 Alpha virt. eigenvalues --    1.30183   1.31329   1.31804   1.32719   1.33660
 Alpha virt. eigenvalues --    1.34702   1.35972   1.37990   1.39482   1.39606
 Alpha virt. eigenvalues --    1.42823   1.43689   1.45490   1.48491   1.50256
 Alpha virt. eigenvalues --    1.51856   1.53021   1.53732   1.55632   1.57117
 Alpha virt. eigenvalues --    1.60066   1.60985   1.62238   1.62652   1.64638
 Alpha virt. eigenvalues --    1.66514   1.71357   1.72166   1.74378   1.76467
 Alpha virt. eigenvalues --    1.77595   1.79779   1.82263   1.83326   1.84474
 Alpha virt. eigenvalues --    1.85271   1.85642   1.89049   1.90956   1.91440
 Alpha virt. eigenvalues --    1.93216   1.95011   1.98945   2.00212   2.07133
 Alpha virt. eigenvalues --    2.07944   2.15681   2.17312   2.19124   2.21076
 Alpha virt. eigenvalues --    2.22529   2.23496   2.25286   2.25665   2.26211
 Alpha virt. eigenvalues --    2.27907   2.28414   2.28907   2.32368   2.34798
 Alpha virt. eigenvalues --    2.35537   2.37621   2.38292   2.39418   2.39893
 Alpha virt. eigenvalues --    2.41589   2.42149   2.44789   2.45865   2.46841
 Alpha virt. eigenvalues --    2.48998   2.51521   2.52732   2.53220   2.53699
 Alpha virt. eigenvalues --    2.55259   2.56589   2.58269   2.58709   2.60334
 Alpha virt. eigenvalues --    2.61987   2.64590   2.65562   2.68216   2.69469
 Alpha virt. eigenvalues --    2.69867   2.71441   2.76282   2.78457   2.80459
 Alpha virt. eigenvalues --    2.81740   2.85684   2.86371   2.88066   2.90928
 Alpha virt. eigenvalues --    2.94636   2.97106   3.00396   3.02257   3.03405
 Alpha virt. eigenvalues --    3.08485   3.11626   3.13709   3.15353   3.15971
 Alpha virt. eigenvalues --    3.17236   3.21893   3.22413   3.25643   3.26603
 Alpha virt. eigenvalues --    3.30408   3.35180   3.39711   3.43468   3.45500
 Alpha virt. eigenvalues --    3.46860   3.48138   3.53242   3.58690   3.68347
 Alpha virt. eigenvalues --    3.70505   3.75523   3.96078   4.53719   4.56618
 Alpha virt. eigenvalues --    4.58971   4.61634   4.66412   4.69229   4.75599
 Alpha virt. eigenvalues --    4.76605   4.78930   4.86068   4.90347   4.96868
 Alpha virt. eigenvalues --    4.99628   5.03744   5.08912   5.26688   5.32588
          Condensed to atoms (all electrons):
               1          2          3          4          5          6
     1  C    5.274236   0.374628   0.374251   0.380103   0.373658  -0.070894
     2  H    0.374628   0.515972  -0.026125  -0.019826  -0.029972   0.001101
     3  H    0.374251  -0.026125   0.526614  -0.020683  -0.030723   0.001159
     4  H    0.380103  -0.019826  -0.020683   0.499147  -0.034256   0.005228
     5  C    0.373658  -0.029972  -0.030723  -0.034256   4.124958   0.604882
     6  O   -0.070894   0.001101   0.001159   0.005228   0.604882   8.197285
     7  N   -0.131151   0.003045   0.003408   0.004939   0.289067  -0.110293
     8  H   -0.001577   0.000387   0.000279  -0.000028  -0.017570   0.002021
     9  C    0.004334  -0.000156  -0.000201  -0.000063  -0.027969   0.006631
    10  H    0.000252  -0.000014  -0.000005   0.000000  -0.001358   0.004560
    11  C   -0.000306   0.000001   0.000050   0.000003  -0.004129  -0.002973
    12  H    0.000111  -0.000001  -0.000029   0.000003   0.002910   0.004464
    13  H    0.000002   0.000000  -0.000005   0.000000   0.000432   0.000031
    14  C    0.000003   0.000000   0.000000   0.000000  -0.000005  -0.000109
    15  C    0.000000   0.000000   0.000000   0.000000  -0.000003  -0.000002
    16  H    0.000000   0.000000   0.000000   0.000000   0.000000   0.000000
    17  C    0.000000   0.000000   0.000000   0.000000   0.000000   0.000000
    18  H    0.000000   0.000000   0.000000   0.000000   0.000000   0.000000
    19  C    0.000000   0.000000   0.000000   0.000000   0.000000   0.000000
    20  O    0.000000   0.000000   0.000000   0.000000   0.000000   0.000000
    21  C    0.000000   0.000000   0.000000   0.000000   0.000000   0.000000
    22  H    0.000000   0.000000   0.000000   0.000000   0.000000   0.000000
    23  H    0.000000   0.000000   0.000000   0.000000   0.000000   0.000000
    24  H    0.000000   0.000000   0.000000   0.000000   0.000000   0.000000
    25  C    0.000000   0.000000   0.000000   0.000000   0.000000   0.000001
    26  H    0.000000   0.000000   0.000000   0.000000   0.000000   0.000000
    27  C    0.000000   0.000000   0.000000   0.000000   0.000027  -0.000155
    28  H    0.000002   0.000000   0.000000   0.000000   0.000013   0.000776
    29  C   -0.000054  -0.000004   0.000001   0.000000   0.002707   0.000318
    30  O   -0.000059  -0.000001  -0.000002   0.000000   0.000617  -0.000005
    31  O    0.000000   0.000000   0.000000   0.000000  -0.000086   0.000000
               7          8          9         10         11         12
     1  C   -0.131151  -0.001577   0.004334   0.000252  -0.000306   0.000111
     2  H    0.003045   0.000387  -0.000156  -0.000014   0.000001  -0.000001
     3  H    0.003408   0.000279  -0.000201  -0.000005   0.000050  -0.000029
     4  H    0.004939  -0.000028  -0.000063   0.000000   0.000003   0.000003
     5  C    0.289067  -0.017570  -0.027969  -0.001358  -0.004129   0.002910
     6  O   -0.110293   0.002021   0.006631   0.004560  -0.002973   0.004464
     7  N    7.489184   0.302236   0.102939  -0.046967  -0.056190  -0.007422
     8  H    0.302236   0.310593  -0.031074   0.002634   0.002615  -0.000322
     9  C    0.102939  -0.031074   5.282728   0.409361   0.331323  -0.041541
    10  H   -0.046967   0.002634   0.409361   0.483453  -0.045199  -0.002198
    11  C   -0.056190   0.002615   0.331323  -0.045199   5.131117   0.400140
    12  H   -0.007422  -0.000322  -0.041541  -0.002198   0.400140   0.539640
    13  H    0.000813   0.000813  -0.038847   0.004000   0.390317  -0.029008
    14  C    0.004770  -0.000034  -0.053796   0.000984   0.331445  -0.040513
    15  C   -0.000037  -0.000001  -0.001029   0.000311  -0.037766   0.001690
    16  H   -0.000011   0.000000   0.000062   0.000009  -0.002937   0.000020
    17  C    0.000000   0.000000  -0.000092  -0.000008   0.003521  -0.000077
    18  H    0.000000   0.000000   0.000001   0.000000  -0.000114   0.000002
    19  C    0.000000   0.000000   0.000006  -0.000002   0.000319   0.000006
    20  O    0.000000   0.000000   0.000000   0.000000   0.000000   0.000000
    21  C    0.000000   0.000000   0.000000   0.000000   0.000000   0.000000
    22  H    0.000000   0.000000   0.000000   0.000000   0.000000   0.000000
    23  H    0.000000   0.000000   0.000000   0.000000   0.000000   0.000000
    24  H    0.000000   0.000000   0.000000   0.000000   0.000000   0.000000
    25  C    0.000000   0.000000   0.000050  -0.000010   0.002355   0.000070
    26  H    0.000000   0.000000   0.000001   0.000002  -0.000103  -0.000003
    27  C   -0.000039  -0.000001  -0.004345   0.001100  -0.047473  -0.004092
    28  H   -0.000099   0.000001   0.000299   0.000509  -0.002748   0.001564
    29  C   -0.033150  -0.004130   0.296709  -0.027207  -0.039803   0.003163
    30  O   -0.005555   0.033133  -0.119358   0.002280  -0.000020  -0.000130
    31  O    0.002373   0.000686  -0.100462   0.006212  -0.002070  -0.000103
              13         14         15         16         17         18
     1  C    0.000002   0.000003   0.000000   0.000000   0.000000   0.000000
     2  H    0.000000   0.000000   0.000000   0.000000   0.000000   0.000000
     3  H   -0.000005   0.000000   0.000000   0.000000   0.000000   0.000000
     4  H    0.000000   0.000000   0.000000   0.000000   0.000000   0.000000
     5  C    0.000432  -0.000005  -0.000003   0.000000   0.000000   0.000000
     6  O    0.000031  -0.000109  -0.000002   0.000000   0.000000   0.000000
     7  N    0.000813   0.004770  -0.000037  -0.000011   0.000000   0.000000
     8  H    0.000813  -0.000034  -0.000001   0.000000   0.000000   0.000000
     9  C   -0.038847  -0.053796  -0.001029   0.000062  -0.000092   0.000001
    10  H    0.004000   0.000984   0.000311   0.000009  -0.000008   0.000000
    11  C    0.390317   0.331445  -0.037766  -0.002937   0.003521  -0.000114
    12  H   -0.029008  -0.040513   0.001690   0.000020  -0.000077   0.000002
    13  H    0.545228  -0.040818  -0.002748   0.002917   0.000247  -0.000007
    14  C   -0.040818   4.761754   0.594540  -0.023170  -0.043152   0.001700
    15  C   -0.002748   0.594540   4.877069   0.376410   0.492518  -0.025758
    16  H    0.002917  -0.023170   0.376410   0.479561  -0.033340  -0.001575
    17  C    0.000247  -0.043152   0.492518  -0.033340   5.080668   0.379422
    18  H   -0.000007   0.001700  -0.025758  -0.001575   0.379422   0.500740
    19  C   -0.000013  -0.026110  -0.025715   0.001049   0.556369  -0.034516
    20  O    0.000000   0.000089   0.003659  -0.000040  -0.055966  -0.004452
    21  C    0.000000   0.000018  -0.000324  -0.000009  -0.008463   0.001775
    22  H    0.000000   0.000002  -0.000243  -0.000001   0.000831  -0.000287
    23  H    0.000000   0.000000   0.000017   0.000000   0.000400   0.000075
    24  H    0.000000  -0.000006  -0.000291   0.000001   0.001444  -0.000202
    25  C   -0.000034  -0.043985  -0.037605   0.000411  -0.056147   0.002370
    26  H    0.000002   0.002219  -0.000086   0.000012   0.004401  -0.000125
    27  C    0.003419   0.555514  -0.040263   0.003419  -0.037164   0.000341
    28  H    0.000004  -0.027684   0.003464  -0.000135   0.000113   0.000012
    29  C   -0.004005  -0.001424   0.000987   0.000169  -0.000041  -0.000001
    30  O    0.004115  -0.000197  -0.000026   0.000034   0.000001   0.000000
    31  O    0.000055   0.004682   0.000855   0.000076  -0.000164  -0.000002
              19         20         21         22         23         24
     1  C    0.000000   0.000000   0.000000   0.000000   0.000000   0.000000
     2  H    0.000000   0.000000   0.000000   0.000000   0.000000   0.000000
     3  H    0.000000   0.000000   0.000000   0.000000   0.000000   0.000000
     4  H    0.000000   0.000000   0.000000   0.000000   0.000000   0.000000
     5  C    0.000000   0.000000   0.000000   0.000000   0.000000   0.000000
     6  O    0.000000   0.000000   0.000000   0.000000   0.000000   0.000000
     7  N    0.000000   0.000000   0.000000   0.000000   0.000000   0.000000
     8  H    0.000000   0.000000   0.000000   0.000000   0.000000   0.000000
     9  C    0.000006   0.000000   0.000000   0.000000   0.000000   0.000000
    10  H   -0.000002   0.000000   0.000000   0.000000   0.000000   0.000000
    11  C    0.000319   0.000000   0.000000   0.000000   0.000000   0.000000
    12  H    0.000006   0.000000   0.000000   0.000000   0.000000   0.000000
    13  H   -0.000013   0.000000   0.000000   0.000000   0.000000   0.000000
    14  C   -0.026110   0.000089   0.000018   0.000002   0.000000  -0.000006
    15  C   -0.025715   0.003659  -0.000324  -0.000243   0.000017  -0.000291
    16  H    0.001049  -0.000040  -0.000009  -0.000001   0.000000   0.000001
    17  C    0.556369  -0.055966  -0.008463   0.000831   0.000400   0.001444
    18  H   -0.034516  -0.004452   0.001775  -0.000287   0.000075  -0.000202
    19  C    4.402343   0.238835  -0.044788   0.000066   0.002133   0.000288
    20  O    0.238835   8.425144   0.217543  -0.039473  -0.035807  -0.040881
    21  C   -0.044788   0.217543   4.817044   0.392169   0.404722   0.387619
    22  H    0.000066  -0.039473   0.392169   0.562203  -0.031235  -0.045549
    23  H    0.002133  -0.035807   0.404722  -0.031235   0.524175  -0.031847
    24  H    0.000288  -0.040881   0.387619  -0.045549  -0.031847   0.582573
    25  C    0.582793  -0.050759   0.002722  -0.000020  -0.000004   0.000052
    26  H   -0.033827   0.001230  -0.000149   0.000019  -0.000021   0.000019
    27  C   -0.039514   0.001989  -0.000072  -0.000006   0.000003  -0.000006
    28  H    0.002192  -0.000051   0.000002   0.000000   0.000000   0.000000
    29  C    0.000010   0.000000   0.000000   0.000000   0.000000   0.000000
    30  O    0.000000   0.000000   0.000000   0.000000   0.000000   0.000000
    31  O    0.000021   0.000000   0.000000   0.000000   0.000000   0.000000
              25         26         27         28         29         30
     1  C    0.000000   0.000000   0.000000   0.000002  -0.000054  -0.000059
     2  H    0.000000   0.000000   0.000000   0.000000  -0.000004  -0.000001
     3  H    0.000000   0.000000   0.000000   0.000000   0.000001  -0.000002
     4  H    0.000000   0.000000   0.000000   0.000000   0.000000   0.000000
     5  C    0.000000   0.000000   0.000027   0.000013   0.002707   0.000617
     6  O    0.000001   0.000000  -0.000155   0.000776   0.000318  -0.000005
     7  N    0.000000   0.000000  -0.000039  -0.000099  -0.033150  -0.005555
     8  H    0.000000   0.000000  -0.000001   0.000001  -0.004130   0.033133
     9  C    0.000050   0.000001  -0.004345   0.000299   0.296709  -0.119358
    10  H   -0.000010   0.000002   0.001100   0.000509  -0.027207   0.002280
    11  C    0.002355  -0.000103  -0.047473  -0.002748  -0.039803  -0.000020
    12  H    0.000070  -0.000003  -0.004092   0.001564   0.003163  -0.000130
    13  H   -0.000034   0.000002   0.003419   0.000004  -0.004005   0.004115
    14  C   -0.043985   0.002219   0.555514  -0.027684  -0.001424  -0.000197
    15  C   -0.037605  -0.000086  -0.040263   0.003464   0.000987  -0.000026
    16  H    0.000411   0.000012   0.003419  -0.000135   0.000169   0.000034
    17  C   -0.056147   0.004401  -0.037164   0.000113  -0.000041   0.000001
    18  H    0.002370  -0.000125   0.000341   0.000012  -0.000001   0.000000
    19  C    0.582793  -0.033827  -0.039514   0.002192   0.000010   0.000000
    20  O   -0.050759   0.001230   0.001989  -0.000051   0.000000   0.000000
    21  C    0.002722  -0.000149  -0.000072   0.000002   0.000000   0.000000
    22  H   -0.000020   0.000019  -0.000006   0.000000   0.000000   0.000000
    23  H   -0.000004  -0.000021   0.000003   0.000000   0.000000   0.000000
    24  H    0.000052   0.000019  -0.000006   0.000000   0.000000   0.000000
    25  C    4.955086   0.376195   0.547202  -0.032287  -0.000019   0.000000
    26  H    0.376195   0.496924  -0.030121  -0.002320   0.000000   0.000000
    27  C    0.547202  -0.030121   4.909252   0.377442  -0.000228  -0.000012
    28  H   -0.032287  -0.002320   0.377442   0.471340   0.000068   0.000000
    29  C   -0.000019   0.000000  -0.000228   0.000068   4.063063   0.509723
    30  O    0.000000   0.000000  -0.000012   0.000000   0.509723   8.376745
    31  O   -0.000046   0.000000  -0.000220  -0.000008   0.490660  -0.096696
              31
     1  C    0.000000
     2  H    0.000000
     3  H    0.000000
     4  H    0.000000
     5  C   -0.000086
     6  O    0.000000
     7  N    0.002373
     8  H    0.000686
     9  C   -0.100462
    10  H    0.006212
    11  C   -0.002070
    12  H   -0.000103
    13  H    0.000055
    14  C    0.004682
    15  C    0.000855
    16  H    0.000076
    17  C   -0.000164
    18  H   -0.000002
    19  C    0.000021
    20  O    0.000000
    21  C    0.000000
    22  H    0.000000
    23  H    0.000000
    24  H    0.000000
    25  C   -0.000046
    26  H    0.000000
    27  C   -0.000220
    28  H   -0.000008
    29  C    0.490660
    30  O   -0.096696
    31  O    8.526193
 Mulliken charges:
               1
     1  C   -0.577539
     2  H    0.180962
     3  H    0.172011
     4  H    0.185434
     5  C    0.746798
     6  O   -0.644028
     7  N   -0.811859
     8  H    0.399339
     9  C   -0.015510
    10  H    0.207300
    11  C   -0.351376
    12  H    0.171658
    13  H    0.163088
    14  C    0.043285
    15  C   -0.179622
    16  H    0.197066
    17  C   -0.285322
    18  H    0.180601
    19  C    0.418056
    20  O   -0.661059
    21  C   -0.169807
    22  H    0.161525
    23  H    0.167391
    24  H    0.146784
    25  C   -0.248389
    26  H    0.185731
    27  C   -0.195996
    28  H    0.207533
    29  C    0.742487
    30  O   -0.704587
    31  O   -0.831955
 Sum of Mulliken charges =  -1.00000
 Mulliken charges with hydrogens summed into heavy atoms:
               1
     1  C   -0.039133
     5  C    0.746798
     6  O   -0.644028
     7  N   -0.412520
     9  C    0.191789
    11  C   -0.016630
    14  C    0.043285
    15  C    0.017445
    17  C   -0.104721
    19  C    0.418056
    20  O   -0.661059
    21  C    0.305893
    25  C   -0.062658
    27  C    0.011537
    29  C    0.742487
    30  O   -0.704587
    31  O   -0.831955
 Electronic spatial extent (au):  <R**2>=           5694.3044
 Charge=             -1.0000 electrons
 Dipole moment (field-independent basis, Debye):
    X=             -4.0654    Y=             -5.8215    Z=              5.2385  Tot=              8.8238
 Quadrupole moment (field-independent basis, Debye-Ang):
   XX=           -102.7825   YY=           -137.8949   ZZ=           -108.0677
   XY=             -9.7717   XZ=              1.1978   YZ=              8.4444
 Traceless Quadrupole moment (field-independent basis, Debye-Ang):
   XX=             13.4659   YY=            -21.6466   ZZ=              8.1807
   XY=             -9.7717   XZ=              1.1978   YZ=              8.4444
 Octapole moment (field-independent basis, Debye-Ang**2):
  XXX=            -13.6164  YYY=            -54.1394  ZZZ=              2.7128  XYY=            -59.1871
  XXY=             39.5498  XXZ=             22.9166  XZZ=              6.0955  YZZ=             -7.9077
  YYZ=             18.1324  XYZ=             -9.6076
 Hexadecapole moment (field-independent basis, Debye-Ang**3):
 XXXX=          -5489.1164 YYYY=          -1292.7131 ZZZZ=           -387.1679 XXXY=           -114.0362
 XXXZ=            -27.5231 YYYX=            -59.7263 YYYZ=             36.6474 ZZZX=             11.7304
 ZZZY=             26.4239 XXYY=          -1347.8486 XXZZ=          -1082.4358 YYZZ=           -260.1013
 XXYZ=            -24.3339 YYXZ=             22.8523 ZZXY=             -3.5501
 N-N= 1.170583787608D+03 E-N=-4.274604473074D+03  KE= 8.152910411224D+02
 Calling FoFJK, ICntrl=      2127 FMM=F ISym2X=0 I1Cent= 0 IOpClX= 0 NMat=1 NMatS=1 NMatT=0.
 ***** Axes restored to original set *****
 -------------------------------------------------------------------
 Center     Atomic                   Forces (Hartrees/Bohr)
 Number     Number              X              Y              Z
 -------------------------------------------------------------------
      1        6          -0.000429890   -0.001198086    0.001364200
      2        1           0.000528450    0.001695367    0.000096737
      3        1           0.000252568    0.000900060    0.000036033
      4        1          -0.000088848    0.001239761   -0.000070176
      5        6           0.010367604   -0.019754026    0.006358715
      6        8          -0.006501316    0.008866342   -0.005243841
      7        7          -0.002741707    0.022960946   -0.009854117
      8        1          -0.000659325   -0.004006198    0.001681771
      9        6          -0.000141537   -0.007091069    0.001840707
     10        1           0.002797527   -0.002914291    0.001816974
     11        6          -0.001551827    0.002631924    0.002640594
     12        1           0.000073950    0.000346094   -0.003224970
     13        1           0.000476285   -0.000907818    0.000209144
     14        6          -0.000370773    0.000309209    0.000898631
     15        6          -0.000852268    0.001665725   -0.000813655
     16        1          -0.001210527    0.000229670    0.001459501
     17        6          -0.002037816    0.001452479   -0.002325879
     18        1           0.000171971   -0.000781839    0.000598352
     19        6           0.006061865    0.008631916    0.005834463
     20        8          -0.004884200   -0.011963771   -0.006004658
     21        6          -0.001632006    0.006061240    0.002657228
     22        1           0.000479644   -0.000121635   -0.000146646
     23        1          -0.000753027   -0.000846859   -0.000523059
     24        1           0.000838949   -0.000324595   -0.000298646
     25        6           0.002037861   -0.001621809   -0.001466793
     26        1          -0.000836423   -0.000116208    0.000213124
     27        6           0.002952281   -0.001027121   -0.000858851
     28        1           0.000273460   -0.000338076    0.001148525
     29        6          -0.095890263   -0.120582767    0.036374868
     30        8           0.035611460    0.026629940    0.000357331
     31        8           0.057657876    0.089975493   -0.034755608
 -------------------------------------------------------------------
 Cartesian Forces:  Max     0.120582767 RMS     0.021137652
 -----------------------------------------------------------------------------------------------
                       Internal Coordinate Forces (Hartree/Bohr or radian)
  Cent   Atom   N1       Length/X         N2         Alpha/Y        N3         Beta/Z          J
 -----------------------------------------------------------------------------------------------
      1  C 
      2  H        1   0.000097(     1)
      3  H        1   0.000229(     2)      2  -0.001084(    31)
      4  H        1   0.001077(     3)      3  -0.001097(    32)      2  -0.003308(    60)     0
      5  C        1   0.002752(     4)      4  -0.001851(    33)      3   0.001460(    61)     0
      6  O        5   0.008728(     5)      1  -0.019277(    34)      4  -0.000087(    62)     0
      7  N        5  -0.009564(     6)      1  -0.015509(    35)      6  -0.001225(    63)     0
      8  H        7   0.000529(     7)      5   0.007524(    36)      1   0.002806(    64)     0
      9  C        7   0.008273(     8)      5   0.023329(    37)      1  -0.005090(    65)     0
     10  H        9  -0.002966(     9)      7   0.004151(    38)      5  -0.005023(    66)     0
     11  C        9  -0.001072(    10)      7  -0.007016(    39)      5   0.003584(    67)     0
     12  H       11   0.002139(    11)      9   0.004922(    40)      7  -0.000800(    68)     0
     13  H       11   0.000621(    12)      9  -0.000040(    41)      7   0.001638(    69)     0
     14  C       11  -0.001210(    13)      9   0.004683(    42)      7   0.004353(    70)     0
     15  C       14  -0.000486(    14)     11  -0.000238(    43)      9   0.005001(    71)     0
     16  H       15  -0.000798(    15)     14  -0.001133(    44)     11   0.002907(    72)     0
     17  C       15  -0.000104(    16)     14  -0.002652(    45)     11   0.004110(    73)     0
     18  H       17   0.000715(    17)     15  -0.000068(    46)     14   0.001236(    74)     0
     19  C       17  -0.004656(    18)     15  -0.009633(    47)     14   0.002772(    75)     0
     20  O       19   0.010264(    19)     17  -0.002403(    48)     15   0.000282(    76)     0
     21  C       20  -0.004987(    20)     19  -0.003381(    49)     17   0.001320(    77)     0
     22  H       21   0.000073(    21)     20   0.000653(    50)     19  -0.000762(    78)     0
     23  H       21   0.001230(    22)     20   0.000419(    51)     19   0.000089(    79)     0
     24  H       21   0.000821(    23)     20   0.000820(    52)     19   0.000482(    80)     0
     25  C       19  -0.004835(    24)     17  -0.015602(    53)     15   0.002133(    81)     0
     26  H       25   0.000729(    25)     19  -0.000131(    54)     17   0.000843(    82)     0
     27  C       25   0.000664(    26)     19  -0.009975(    55)     17   0.000752(    83)     0
     28  H       27  -0.000344(    27)     25   0.001056(    56)     19   0.001881(    84)     0
     29  C        9   0.003178(    28)      7  -0.002742(    57)      5  -0.003276(    85)     0
     30  O       29   0.034481(    29)      9  -0.063936(    58)      7  -0.002014(    86)     0
     31  O       29  -0.110769(    30)      9  -0.047688(    59)      7   0.005216(    87)     0
 -----------------------------------------------------------------------------------------------
 Internal  Forces:  Max     0.110769188 RMS     0.016009038

 GradGradGradGradGradGradGradGradGradGradGradGradGradGradGradGradGradGrad
 Berny optimization.
 Search for a local minimum.
 Step number   1 out of a maximum of   97
 All quantities printed in internal units (Hartrees-Bohrs-Radians)
 Second derivative matrix not updated -- first step.
 ITU=  0
     Eigenvalues ---    0.00662   0.01180   0.01708   0.01812   0.02204
     Eigenvalues ---    0.02763   0.03276   0.03699   0.03853   0.04394
     Eigenvalues ---    0.06641   0.07661   0.08152   0.09403   0.10245
     Eigenvalues ---    0.11810   0.13279   0.14148   0.14353   0.15011
     Eigenvalues ---    0.17799   0.17840   0.17946   0.19883   0.20754
     Eigenvalues ---    0.21372   0.22173   0.22423   0.24234   0.25000
     Eigenvalues ---    0.25000   0.25005   0.25470   0.27028   0.27841
     Eigenvalues ---    0.29725   0.30254   0.30915   0.31033   0.32661
     Eigenvalues ---    0.32670   0.33961   0.35358   0.35378   0.35383
     Eigenvalues ---    0.35385   0.35408   0.35640   0.35817   0.35872
     Eigenvalues ---    0.36043   0.36067   0.36375   0.36429   0.36703
     Eigenvalues ---    0.36822   0.36885   0.38701   0.38777   0.39167
     Eigenvalues ---    0.39229   0.40073   0.40093   0.41536   0.43253
     Eigenvalues ---    0.43880   0.45818   0.47071   0.47454   0.48438
     Eigenvalues ---    0.48763   0.50052   0.50595   0.53124   0.54925
     Eigenvalues ---    0.55289   0.56475   0.59231   0.62799   0.69438
     Eigenvalues ---    0.75000   0.75003   1.02028   1.03090   2.09366
     Eigenvalues ---    3.13749  25.96545
 RFO step:  Lambda=-3.49085075D-02 EMin= 6.62009633D-03
 Linear search not attempted -- first point.
 Variable       Old X    -DE/DX   Delta X   Delta X   Delta X     New X
                                 (Linear)    (Quad)   (Total)
    B1        2.05097   0.00010   0.00000   0.00025   0.00025   2.05122
    B2        2.05057   0.00023   0.00000   0.00059   0.00059   2.05116
    B3        2.03976   0.00108   0.00000   0.00272   0.00272   2.04249
    B4        2.86176   0.00275   0.00000   0.00800   0.00800   2.86976
    B5        2.27426   0.00873   0.00000   0.00819   0.00819   2.28245
    B6        2.55199  -0.00956   0.00000  -0.01637  -0.01637   2.53562
    B7        1.88175   0.00053   0.00000   0.00102   0.00102   1.88277
    B8        2.72615   0.00827   0.00000   0.01937   0.01937   2.74552
    B9        2.04369  -0.00297   0.00000  -0.00755  -0.00755   2.03614
   B10        2.92488  -0.00107   0.00000  -0.00342  -0.00342   2.92145
   B11        2.04649   0.00214   0.00000   0.00547   0.00547   2.05196
   B12        2.05055   0.00062   0.00000   0.00160   0.00160   2.05214
   B13        2.85950  -0.00121   0.00000  -0.00350  -0.00350   2.85599
   B14        2.61240  -0.00049   0.00000  -0.00547  -0.00547   2.60693
   B15        2.03416  -0.00080   0.00000  -0.00200  -0.00200   2.03216
   B16        2.63063  -0.00010   0.00000   0.00007   0.00007   2.63070
   B17        2.02720   0.00071   0.00000   0.00177   0.00177   2.02897
   B18        2.61525  -0.00466   0.00000  -0.00402  -0.00402   2.61123
   B19        2.54876   0.01026   0.00000   0.01746   0.01746   2.56622
   B20        2.64337  -0.00499   0.00000  -0.01011  -0.01011   2.63326
   B21        2.05066   0.00007   0.00000   0.00019   0.00019   2.05084
   B22        2.04014   0.00123   0.00000   0.00311   0.00311   2.04325
   B23        2.05018   0.00082   0.00000   0.00211   0.00211   2.05229
   B24        2.63485  -0.00483   0.00000  -0.00488  -0.00488   2.62997
   B25        2.02996   0.00073   0.00000   0.00181   0.00181   2.03177
   B26        2.60141   0.00066   0.00000   0.00090   0.00090   2.60230
   B27        2.03500  -0.00034   0.00000  -0.00086  -0.00086   2.03413
   B28        2.88515   0.00318   0.00000   0.00957   0.00957   2.89472
   B29        2.27837   0.03448   0.00000   0.03268   0.03268   2.31105
   B30        2.53844  -0.11077   0.00000  -0.18472  -0.18472   2.35372
    A1        1.88399  -0.00108   0.00000  -0.00217  -0.00217   1.88182
    A2        1.91810  -0.00110   0.00000  -0.00630  -0.00630   1.91180
    A3        1.90900  -0.00185   0.00000  -0.00208  -0.00208   1.90692
    A4        2.14077  -0.01928   0.00000  -0.02885  -0.02885   2.11192
    A5        2.00638  -0.01551   0.00000  -0.01538  -0.01538   1.99100
    A6        2.11765   0.00752   0.00000  -0.00286  -0.00286   2.11479
    A7        2.13188   0.02333   0.00000   0.05325   0.05325   2.18514
    A8        1.88904   0.00415   0.00000   0.02600   0.02600   1.91504
    A9        1.94251  -0.00702   0.00000  -0.02226  -0.02226   1.92025
   A10        1.85576   0.00492   0.00000   0.01981   0.01981   1.87557
   A11        1.89253  -0.00004   0.00000  -0.00671  -0.00671   1.88583
   A12        1.99643   0.00468   0.00000   0.00999   0.00999   2.00641
   A13        2.13060  -0.00024   0.00000   0.00141   0.00141   2.13201
   A14        2.08733  -0.00113   0.00000  -0.00381  -0.00381   2.08351
   A15        2.12784  -0.00265   0.00000   0.00139   0.00139   2.12923
   A16        2.07885  -0.00007   0.00000  -0.00095  -0.00095   2.07790
   A17        2.08758  -0.00963   0.00000   0.00169   0.00169   2.08927
   A18        2.17824  -0.00240   0.00000  -0.00355  -0.00355   2.17469
   A19        2.08947  -0.00338   0.00000  -0.01187  -0.01187   2.07761
   A20        1.94544   0.00065   0.00000   0.00135   0.00135   1.94679
   A21        1.85439   0.00042   0.00000   0.00191   0.00191   1.85630
   A22        1.94487   0.00082   0.00000   0.00187   0.00187   1.94674
   A23        2.08276  -0.01560   0.00000  -0.00202  -0.00202   2.08074
   A24        2.06942  -0.00013   0.00000   0.00029   0.00029   2.06971
   A25        2.09815  -0.00998   0.00000  -0.00136  -0.00136   2.09679
   A26        2.08038   0.00106   0.00000   0.00102   0.00102   2.08139
   A27        1.86748  -0.00274   0.00000  -0.01131  -0.01131   1.85617
   A28        2.10776  -0.06394   0.00000  -0.09960  -0.09960   2.00815
   A29        2.02712  -0.04769   0.00000  -0.04257  -0.04257   1.98455
    D1        2.09181  -0.00331   0.00000  -0.01391  -0.01391   2.07790
    D2       -2.11428   0.00146   0.00000   0.00062   0.00062  -2.11367
    D3       -0.01372  -0.00009   0.00000  -0.00359  -0.00359  -0.01732
    D4       -3.13734  -0.00122   0.00000  -0.00562  -0.00562  -3.14295
    D5       -0.00716   0.00281   0.00000   0.00231   0.00231  -0.00484
    D6        3.12277  -0.00509   0.00000  -0.02885  -0.02885   3.09392
    D7       -0.66606  -0.00502   0.00000  -0.02940  -0.02940  -0.69546
    D8        1.42293   0.00358   0.00000  -0.00479  -0.00479   1.41814
    D9       -0.85364  -0.00080   0.00000   0.03537   0.03537  -0.81827
   D10        1.15620   0.00164   0.00000   0.04064   0.04064   1.19684
   D11       -2.96640   0.00435   0.00000   0.03715   0.03715  -2.92925
   D12       -1.87162   0.00500   0.00000   0.06913   0.06913  -1.80248
   D13       -0.01038   0.00291   0.00000   0.03428   0.03428   0.02390
   D14        3.13355   0.00411   0.00000   0.02472   0.02472   3.15827
   D15        3.13729   0.00124   0.00000   0.00927   0.00927   3.14655
   D16       -0.00091   0.00277   0.00000   0.00088   0.00088  -0.00004
   D17       -3.13905   0.00028   0.00000   0.00164   0.00164  -3.13742
   D18       -0.03571   0.00132   0.00000   0.01521   0.01521  -0.02050
   D19        1.08889  -0.00076   0.00000  -0.00313  -0.00313   1.08576
   D20       -3.12142   0.00009   0.00000  -0.00094  -0.00094  -3.12237
   D21       -1.04753   0.00048   0.00000   0.00038   0.00038  -1.04715
   D22        0.00274   0.00213   0.00000  -0.00129  -0.00129   0.00146
   D23        3.13068   0.00084   0.00000   0.00696   0.00696   3.13765
   D24        0.00137   0.00075   0.00000  -0.00321  -0.00321  -0.00184
   D25        3.12337   0.00188   0.00000   0.01262   0.01262   3.13599
   D26       -2.73571  -0.00328   0.00000  -0.03334  -0.03334  -2.76905
   D27       -0.53429  -0.00201   0.00000   0.00767   0.00767  -0.52662
   D28        2.60631   0.00522   0.00000   0.06879   0.06879   2.67510
         Item               Value     Threshold  Converged?
 Maximum Force            0.110769     0.000450     NO 
 RMS     Force            0.016009     0.000300     NO 
 Maximum Displacement     0.184720     0.001800     NO 
 RMS     Displacement     0.029099     0.001200     NO 
 Predicted change in Energy=-1.874011D-02
 GradGradGradGradGradGradGradGradGradGradGradGradGradGradGradGradGradGrad

 ---------------------------------------------------------------------------------------------------
                            Z-MATRIX (ANGSTROMS AND DEGREES)
   CD    Cent   Atom    N1       Length/X        N2       Alpha/Y        N3        Beta/Z          J
 ---------------------------------------------------------------------------------------------------
      1      1  C 
      2      2  H        1   1.085459(     1)
      3      3  H        1   1.085428(     2)      2  107.820(    31)
      4      4  H        1   1.080837(     3)      3  109.538(    32)      2  119.055(    60)      0
      5      5  C        1   1.518611(     4)      4  109.258(    33)      3 -121.104(    61)      0
      6      6  O        5   1.207821(     5)      1  121.004(    34)      4   -0.992(    62)      0
      7      7  N        5   1.341791(     6)      1  114.076(    35)      6 -180.078(    63)      0
      8      8  H        7   0.996319(     7)      5  121.169(    36)      1   -0.277(    64)      0
      9      9  C        7   1.452864(     8)      5  125.199(    37)      1  177.269(    65)      0
     10     10  H        9   1.077479(     9)      7  109.724(    38)      5  -39.847(    66)      0
     11     11  C        9   1.545967(    10)      7  110.022(    39)      5   81.253(    67)      0
     12     12  H       11   1.085848(    11)      9  107.462(    40)      7  -46.883(    68)      0
     13     13  H       11   1.085947(    12)      9  108.050(    41)      7   68.574(    69)      0
     14     14  C       11   1.511326(    13)      9  114.959(    42)      7 -167.834(    70)      0
     15     15  C       14   1.379526(    14)     11  122.155(    43)      9 -103.275(    71)      0
     16     16  H       15   1.075372(    15)     14  119.376(    44)     11    1.369(    72)      0
     17     17  C       15   1.392106(    16)     14  121.996(    45)     11  180.956(    73)      0
     18     18  H       17   1.073686(    17)     15  119.055(    46)     14  180.284(    74)      0
     19     19  C       17   1.381804(    18)     15  119.706(    47)     14   -0.002(    75)      0
     20     20  O       19   1.357987(    19)     17  124.601(    48)     15 -179.761(    76)      0
     21     21  C       20   1.393462(    20)     19  119.038(    49)     17   -1.174(    77)      0
     22     22  H       21   1.085260(    21)     20  111.543(    50)     19   62.209(    78)      0
     23     23  H       21   1.081243(    22)     20  106.358(    51)     19 -178.898(    79)      0
     24     24  H       21   1.086023(    23)     20  111.540(    52)     19  -59.998(    80)      0
     25     25  C       19   1.391719(    24)     17  119.217(    53)     15    0.083(    81)      0
     26     26  H       25   1.075167(    25)     19  118.586(    54)     17  179.774(    82)      0
     27     27  C       25   1.377080(    26)     19  120.137(    55)     17   -0.105(    83)      0
     28     28  H       27   1.076417(    27)     25  119.255(    56)     19  179.679(    84)      0
     29     29  C        9   1.531821(    28)      7  106.351(    57)      5 -158.655(    85)      0
     30     30  O       29   1.222956(    29)      9  115.059(    58)      7  -30.173(    86)      0
     31     31  O       29   1.245535(    30)      9  113.706(    59)      7  153.272(    87)      0
 ---------------------------------------------------------------------------------------------------
                         Z-Matrix orientation:                         
 ---------------------------------------------------------------------
 Center     Atomic      Atomic             Coordinates (Angstroms)
 Number     Number       Type             X           Y           Z
 ---------------------------------------------------------------------
      1          6           0        0.000000    0.000000    0.000000
      2          1           0        0.000000    0.000000    1.085459
      3          1           0        1.033350    0.000000   -0.332176
      4          1           0       -0.495515    0.890415   -0.360327
      5          6           0       -0.726417   -1.225291   -0.526459
      6          8           0       -1.710217   -1.115771   -1.218537
      7          7           0       -0.175284   -2.390542   -0.153838
      8          1           0        0.641982   -2.415730    0.415453
      9          6           0       -0.702776   -3.706245   -0.472415
     10          1           0       -1.777108   -3.696861   -0.390655
     11          6           0       -0.286169   -4.110850   -1.905157
     12          1           0       -0.484475   -3.262951   -2.553854
     13          1           0        0.787138   -4.276003   -1.909495
     14          6           0       -1.003732   -5.319424   -2.460638
     15          6           0       -0.404743   -6.560029   -2.532759
     16          1           0        0.597764   -6.684030   -2.163937
     17          6           0       -1.061983   -7.666748   -3.063012
     18          1           0       -0.552456   -8.611390   -3.091904
     19          6           0       -2.353780   -7.534586   -3.535428
     20          8           0       -3.087725   -8.545972   -4.066985
     21          6           0       -2.515186   -9.811568   -4.177434
     22          1           0       -2.255976  -10.217933   -3.205082
     23          1           0       -3.261128  -10.444078   -4.638507
     24          1           0       -1.627221   -9.794338   -4.802470
     25          6           0       -2.975867   -6.291180   -3.473545
     26          1           0       -3.979738   -6.199019   -3.847354
     27          6           0       -2.307761   -5.209380   -2.944685
     28          1           0       -2.800565   -4.253080   -2.908526
     29          6           0       -0.109893   -4.670121    0.560012
     30          8           0        0.995974   -4.361723    0.981404
     31          8           0       -0.817153   -5.673042    0.772826
 ---------------------------------------------------------------------
                    Distance matrix (angstroms):
                    1          2          3          4          5
     1  C    0.000000
     2  H    1.085459   0.000000
     3  H    1.085428   1.754281   0.000000
     4  H    1.080837   1.768804   1.769480   0.000000
     5  C    1.518611   2.151116   2.153106   2.134743   0.000000
     6  O    2.377945   3.078666   3.091560   2.497360   1.207821
     7  N    2.401892   2.698384   2.684640   3.303009   1.341791
     8  H    2.533869   2.587817   2.558880   3.581386   2.043736
     9  C    3.801753   4.081314   4.095126   4.602696   2.481655
    10  H    4.120377   4.359336   4.644231   4.763035   2.689062
    11  C    4.539890   5.091637   4.595051   5.238605   3.228169
    12  H    4.171779   4.911840   4.229244   4.697035   2.884602
    13  H    4.748679   5.279539   4.564291   5.544095   3.675660
    14  C    5.946300   6.471364   6.080816   6.575081   4.536504
    15  C    7.043626   7.502620   7.067154   7.761239   5.708603
    16  H    7.050972   7.456015   6.944159   7.862601   5.850865
    17  C    8.323994   8.781608   8.403982   8.991687   6.931023
    18  H    9.166304   9.587055   9.180791   9.886813   7.820884
    19  C    8.649250   9.146741   8.860218   9.193208   7.177006
    20  O    9.955302  10.445830  10.196357  10.464429   8.467790
    21  C   10.956459  11.414512  11.119577  11.540443   9.500183
[...]
 Alpha virt. eigenvalues --    2.49114   2.50433   2.52735   2.52948   2.54428
 Alpha virt. eigenvalues --    2.55809   2.56793   2.59035   2.59872   2.62759
 Alpha virt. eigenvalues --    2.63161   2.67269   2.67680   2.68678   2.68945
 Alpha virt. eigenvalues --    2.69792   2.74830   2.76495   2.78891   2.80864
 Alpha virt. eigenvalues --    2.81807   2.82460   2.84203   2.90727   2.93917
 Alpha virt. eigenvalues --    2.95111   2.97921   3.00201   3.01681   3.03678
 Alpha virt. eigenvalues --    3.09752   3.11190   3.12989   3.14381   3.16270
 Alpha virt. eigenvalues --    3.17738   3.21422   3.24574   3.26155   3.30457
 Alpha virt. eigenvalues --    3.31525   3.39049   3.40786   3.45339   3.46711
 Alpha virt. eigenvalues --    3.48306   3.50541   3.52167   3.59917   3.69795
 Alpha virt. eigenvalues --    3.70382   3.79984   3.96356   4.54808   4.59092
 Alpha virt. eigenvalues --    4.59597   4.63068   4.66698   4.68811   4.73857
 Alpha virt. eigenvalues --    4.75990   4.81899   4.86935   4.89957   4.98327
 Alpha virt. eigenvalues --    5.02122   5.08081   5.10298   5.24799   5.33431
          Condensed to atoms (all electrons):
               1          2          3          4          5          6
     1  C    5.260728   0.378688   0.372567   0.378544   0.370163  -0.082467
     2  H    0.378688   0.519568  -0.024026  -0.024716  -0.027778   0.001367
     3  H    0.372567  -0.024026   0.536282  -0.024630  -0.038416   0.002953
     4  H    0.378544  -0.024716  -0.024630   0.521994  -0.029147   0.002000
     5  C    0.370163  -0.027778  -0.038416  -0.029147   4.116390   0.584296
     6  O   -0.082467   0.001367   0.002953   0.002000   0.584296   8.238680
     7  N   -0.112756   0.000761   0.008906   0.001994   0.307134  -0.099358
     8  H   -0.002493   0.000067   0.000776   0.000056  -0.013516   0.001690
     9  C    0.004797  -0.000096   0.000062  -0.000089  -0.027585   0.008794
    10  H   -0.000025   0.000039   0.000000  -0.000012  -0.000578   0.002470
    11  C   -0.000242  -0.000006   0.000002   0.000028  -0.004919  -0.001202
    12  H   -0.000042   0.000002  -0.000004   0.000012   0.001291   0.002440
    13  H    0.000012   0.000000  -0.000001  -0.000001   0.000315   0.000087
    14  C   -0.000004   0.000000   0.000000  -0.000001   0.000110  -0.001352
    15  C    0.000000   0.000000   0.000000   0.000000  -0.000007  -0.000007
    16  H    0.000000   0.000000   0.000000   0.000000   0.000000   0.000000
    17  C    0.000000   0.000000   0.000000   0.000000   0.000000   0.000000
    18  H    0.000000   0.000000   0.000000   0.000000   0.000000   0.000000
    19  C    0.000000   0.000000   0.000000   0.000000   0.000000   0.000000
    20  O    0.000000   0.000000   0.000000   0.000000   0.000000   0.000000
    21  C    0.000000   0.000000   0.000000   0.000000   0.000000   0.000000
    22  H    0.000000   0.000000   0.000000   0.000000   0.000000   0.000000
    23  H    0.000000   0.000000   0.000000   0.000000   0.000000   0.000000
    24  H    0.000000   0.000000   0.000000   0.000000   0.000000   0.000000
    25  C    0.000000   0.000000   0.000000   0.000000   0.000001   0.000047
    26  H    0.000000   0.000000   0.000000   0.000000   0.000000  -0.000001
    27  C    0.000003   0.000000   0.000000   0.000000   0.000146  -0.000125
    28  H    0.000014   0.000000   0.000000   0.000000  -0.000023   0.004156
    29  C   -0.000044   0.000002  -0.000028  -0.000001   0.002334   0.000169
    30  O   -0.000091   0.000000  -0.000062  -0.000001   0.000434  -0.000006
    31  O    0.000000   0.000000   0.000000   0.000000  -0.000085   0.000000
               7          8          9         10         11         12
     1  C   -0.112756  -0.002493   0.004797  -0.000025  -0.000242  -0.000042
     2  H    0.000761   0.000067  -0.000096   0.000039  -0.000006   0.000002
     3  H    0.008906   0.000776   0.000062   0.000000   0.000002  -0.000004
     4  H    0.001994   0.000056  -0.000089  -0.000012   0.000028   0.000012
     5  C    0.307134  -0.013516  -0.027585  -0.000578  -0.004919   0.001291
     6  O   -0.099358   0.001690   0.008794   0.002470  -0.001202   0.002440
     7  N    7.455499   0.285311   0.126600  -0.048223  -0.050244  -0.007333
     8  H    0.285311   0.293327  -0.038889   0.002999   0.003546  -0.000072
     9  C    0.126600  -0.038889   5.317835   0.402599   0.302499  -0.038835
    10  H   -0.048223   0.002999   0.402599   0.519853  -0.056532   0.001495
    11  C   -0.050244   0.003546   0.302499  -0.056532   5.109780   0.403808
    12  H   -0.007333  -0.000072  -0.038835   0.001495   0.403808   0.542156
    13  H    0.002610   0.000011  -0.045933   0.003923   0.393627  -0.029230
    14  C    0.003397  -0.000119  -0.042066   0.002649   0.328623  -0.047961
    15  C    0.000090  -0.000003  -0.004120   0.001307  -0.045042   0.004105
    16  H   -0.000010  -0.000003  -0.000217   0.000281  -0.002050   0.000048
    17  C    0.000001   0.000000  -0.000077  -0.000089   0.003228  -0.000042
    18  H    0.000000   0.000000   0.000001   0.000000  -0.000116   0.000002
    19  C    0.000000   0.000000   0.000022  -0.000007   0.000253  -0.000017
    20  O    0.000000   0.000000   0.000000   0.000000   0.000000   0.000000
    21  C    0.000000   0.000000   0.000000   0.000000   0.000000   0.000000
    22  H    0.000000   0.000000   0.000000   0.000000   0.000000   0.000000
    23  H    0.000000   0.000000   0.000000   0.000000   0.000000   0.000000
    24  H    0.000000   0.000000   0.000000   0.000000   0.000000   0.000000
    25  C    0.000000   0.000000  -0.000118  -0.000110   0.003382   0.000280
    26  H    0.000000   0.000000   0.000001   0.000001  -0.000098  -0.000008
    27  C   -0.000114   0.000001  -0.001814   0.001635  -0.044518  -0.005134
    28  H   -0.000117   0.000000   0.000516   0.000113  -0.004077   0.002013
    29  C   -0.033628  -0.006845   0.342116  -0.019681  -0.031478   0.001834
    30  O   -0.021781   0.052972  -0.134433   0.000953   0.001672  -0.000123
    31  O    0.002608   0.001099  -0.130615   0.001810   0.009766   0.000332
              13         14         15         16         17         18
     1  C    0.000012  -0.000004   0.000000   0.000000   0.000000   0.000000
     2  H    0.000000   0.000000   0.000000   0.000000   0.000000   0.000000
     3  H   -0.000001   0.000000   0.000000   0.000000   0.000000   0.000000
     4  H   -0.000001  -0.000001   0.000000   0.000000   0.000000   0.000000
     5  C    0.000315   0.000110  -0.000007   0.000000   0.000000   0.000000
     6  O    0.000087  -0.001352  -0.000007   0.000000   0.000000   0.000000
     7  N    0.002610   0.003397   0.000090  -0.000010   0.000001   0.000000
     8  H    0.000011  -0.000119  -0.000003  -0.000003   0.000000   0.000000
     9  C   -0.045933  -0.042066  -0.004120  -0.000217  -0.000077   0.000001
    10  H    0.003923   0.002649   0.001307   0.000281  -0.000089   0.000000
    11  C    0.393627   0.328623  -0.045042  -0.002050   0.003228  -0.000116
    12  H   -0.029230  -0.047961   0.004105   0.000048  -0.000042   0.000002
    13  H    0.532436  -0.033870  -0.004940   0.001468   0.000034  -0.000003
    14  C   -0.033870   4.843350   0.579466  -0.017269  -0.051711   0.001742
    15  C   -0.004940   0.579466   4.971269   0.361596   0.473532  -0.024629
    16  H    0.001468  -0.017269   0.361596   0.392999  -0.029874  -0.001068
    17  C    0.000034  -0.051711   0.473532  -0.029874   5.124446   0.380791
    18  H   -0.000003   0.001742  -0.024629  -0.001068   0.380791   0.497598
    19  C    0.000003  -0.026190  -0.026155   0.001034   0.544185  -0.036629
    20  O    0.000000   0.000030   0.003567  -0.000027  -0.055525  -0.004523
    21  C    0.000000   0.000016  -0.000380  -0.000009  -0.008634   0.001596
    22  H    0.000000   0.000000  -0.000279  -0.000001   0.001055  -0.000221
    23  H    0.000000   0.000000   0.000018   0.000000   0.000426   0.000082
    24  H    0.000000  -0.000002  -0.000261  -0.000002   0.000787  -0.000232
    25  C   -0.000081  -0.048834  -0.038274   0.000205  -0.056864   0.002294
    26  H    0.000002   0.002344  -0.000214   0.000009   0.004461  -0.000123
    27  C    0.003026   0.564718  -0.048621   0.003322  -0.036958   0.000349
    28  H    0.000073  -0.024778   0.003943  -0.000109   0.000026   0.000011
    29  C   -0.001551  -0.000604   0.001107  -0.000109   0.000015   0.000001
    30  O    0.000214   0.000023  -0.000006   0.000068   0.000000   0.000000
    31  O    0.003864  -0.005799  -0.004959   0.018712   0.000418  -0.000008
              19         20         21         22         23         24
     1  C    0.000000   0.000000   0.000000   0.000000   0.000000   0.000000
     2  H    0.000000   0.000000   0.000000   0.000000   0.000000   0.000000
     3  H    0.000000   0.000000   0.000000   0.000000   0.000000   0.000000
     4  H    0.000000   0.000000   0.000000   0.000000   0.000000   0.000000
     5  C    0.000000   0.000000   0.000000   0.000000   0.000000   0.000000
     6  O    0.000000   0.000000   0.000000   0.000000   0.000000   0.000000
     7  N    0.000000   0.000000   0.000000   0.000000   0.000000   0.000000
     8  H    0.000000   0.000000   0.000000   0.000000   0.000000   0.000000
     9  C    0.000022   0.000000   0.000000   0.000000   0.000000   0.000000
    10  H   -0.000007   0.000000   0.000000   0.000000   0.000000   0.000000
    11  C    0.000253   0.000000   0.000000   0.000000   0.000000   0.000000
    12  H   -0.000017   0.000000   0.000000   0.000000   0.000000   0.000000
    13  H    0.000003   0.000000   0.000000   0.000000   0.000000   0.000000
    14  C   -0.026190   0.000030   0.000016   0.000000   0.000000  -0.000002
    15  C   -0.026155   0.003567  -0.000380  -0.000279   0.000018  -0.000261
    16  H    0.001034  -0.000027  -0.000009  -0.000001   0.000000  -0.000002
    17  C    0.544185  -0.055525  -0.008634   0.001055   0.000426   0.000787
    18  H   -0.036629  -0.004523   0.001596  -0.000221   0.000082  -0.000232
    19  C    4.417709   0.236904  -0.044908  -0.000086   0.002299  -0.000337
    20  O    0.236904   8.430099   0.218187  -0.040310  -0.036401  -0.040869
    21  C   -0.044908   0.218187   4.814789   0.390997   0.404369   0.390283
    22  H   -0.000086  -0.040310   0.390997   0.572361  -0.031339  -0.046711
    23  H    0.002299  -0.036401   0.404369  -0.031339   0.528952  -0.032672
    24  H   -0.000337  -0.040869   0.390283  -0.046711  -0.032672   0.581790
    25  C    0.588866  -0.050095   0.002615   0.000071  -0.000005  -0.000013
    26  H   -0.034427   0.001002  -0.000130   0.000019  -0.000022   0.000019
    27  C   -0.040985   0.001991  -0.000071  -0.000010   0.000003  -0.000005
    28  H    0.002198  -0.000047   0.000002   0.000000   0.000000   0.000000
    29  C   -0.000001   0.000000   0.000000   0.000000   0.000000   0.000000
    30  O    0.000000   0.000000   0.000000   0.000000   0.000000   0.000000
    31  O    0.000001   0.000000   0.000000   0.000000   0.000000   0.000000
              25         26         27         28         29         30
     1  C    0.000000   0.000000   0.000003   0.000014  -0.000044  -0.000091
     2  H    0.000000   0.000000   0.000000   0.000000   0.000002   0.000000
     3  H    0.000000   0.000000   0.000000   0.000000  -0.000028  -0.000062
     4  H    0.000000   0.000000   0.000000   0.000000  -0.000001  -0.000001
     5  C    0.000001   0.000000   0.000146  -0.000023   0.002334   0.000434
     6  O    0.000047  -0.000001  -0.000125   0.004156   0.000169  -0.000006
     7  N    0.000000   0.000000  -0.000114  -0.000117  -0.033628  -0.021781
     8  H    0.000000   0.000000   0.000001   0.000000  -0.006845   0.052972
     9  C   -0.000118   0.000001  -0.001814   0.000516   0.342116  -0.134433
    10  H   -0.000110   0.000001   0.001635   0.000113  -0.019681   0.000953
    11  C    0.003382  -0.000098  -0.044518  -0.004077  -0.031478   0.001672
    12  H    0.000280  -0.000008  -0.005134   0.002013   0.001834  -0.000123
    13  H   -0.000081   0.000002   0.003026   0.000073  -0.001551   0.000214
    14  C   -0.048834   0.002344   0.564718  -0.024778  -0.000604   0.000023
    15  C   -0.038274  -0.000214  -0.048621   0.003943   0.001107  -0.000006
    16  H    0.000205   0.000009   0.003322  -0.000109  -0.000109   0.000068
    17  C   -0.056864   0.004461  -0.036958   0.000026   0.000015   0.000000
    18  H    0.002294  -0.000123   0.000349   0.000011   0.000001   0.000000
    19  C    0.588866  -0.034427  -0.040985   0.002198  -0.000001   0.000000
    20  O   -0.050095   0.001002   0.001991  -0.000047   0.000000   0.000000
    21  C    0.002615  -0.000130  -0.000071   0.000002   0.000000   0.000000
    22  H    0.000071   0.000019  -0.000010   0.000000   0.000000   0.000000
    23  H   -0.000005  -0.000022   0.000003   0.000000   0.000000   0.000000
    24  H   -0.000013   0.000019  -0.000005   0.000000   0.000000   0.000000
    25  C    4.982009   0.376741   0.529880  -0.033925   0.000002   0.000000
    26  H    0.376741   0.498881  -0.030024  -0.002211   0.000000   0.000000
    27  C    0.529880  -0.030024   4.937327   0.376241   0.000096   0.000000
    28  H   -0.033925  -0.002211   0.376241   0.455739   0.000002   0.000000
    29  C    0.000002   0.000000   0.000096   0.000002   3.935019   0.520308
    30  O    0.000000   0.000000   0.000000   0.000000   0.520308   8.419491
    31  O   -0.000002   0.000000   0.000023   0.000001   0.520316  -0.081202
              31
     1  C    0.000000
     2  H    0.000000
     3  H    0.000000
     4  H    0.000000
     5  C   -0.000085
     6  O    0.000000
     7  N    0.002608
     8  H    0.001099
     9  C   -0.130615
    10  H    0.001810
    11  C    0.009766
    12  H    0.000332
    13  H    0.003864
    14  C   -0.005799
    15  C   -0.004959
    16  H    0.018712
    17  C    0.000418
    18  H   -0.000008
    19  C    0.000001
    20  O    0.000000
    21  C    0.000000
    22  H    0.000000
    23  H    0.000000
    24  H    0.000000
    25  C   -0.000002
    26  H    0.000000
    27  C    0.000023
    28  H    0.000001
    29  C    0.520316
    30  O   -0.081202
    31  O    8.401766
 Mulliken charges:
               1
     1  C   -0.567351
     2  H    0.176128
     3  H    0.165618
     4  H    0.173969
     5  C    0.759437
     6  O   -0.664629
     7  N   -0.821347
     8  H    0.420085
     9  C   -0.040954
    10  H    0.183132
    11  C   -0.319687
    12  H    0.168981
    13  H    0.173904
    14  C   -0.025909
    15  C   -0.202102
    16  H    0.271002
    17  C   -0.293634
    18  H    0.183086
    19  C    0.416270
    20  O   -0.663984
    21  C   -0.168723
    22  H    0.154454
    23  H    0.164289
    24  H    0.148226
    25  C   -0.258071
    26  H    0.183775
    27  C   -0.210382
    28  H    0.220242
    29  C    0.770652
    30  O   -0.758430
    31  O   -0.738047
 Sum of Mulliken charges =  -1.00000
 Mulliken charges with hydrogens summed into heavy atoms:
               1
     1  C   -0.051636
     5  C    0.759437
     6  O   -0.664629
     7  N   -0.401262
     9  C    0.142177
    11  C    0.023198
    14  C   -0.025909
    15  C    0.068900
    17  C   -0.110548
    19  C    0.416270
    20  O   -0.663984
    21  C    0.298246
    25  C   -0.074295
    27  C    0.009860
    29  C    0.770652
    30  O   -0.758430
    31  O   -0.738047
 Electronic spatial extent (au):  <R**2>=           5642.4767
 Charge=             -1.0000 electrons
 Dipole moment (field-independent basis, Debye):
    X=             -6.0813    Y=             -5.4766    Z=              0.9966  Tot=              8.2443
 Quadrupole moment (field-independent basis, Debye-Ang):
   XX=           -118.3515   YY=           -140.9875   ZZ=           -102.8942
   XY=            -23.8288   XZ=              5.2478   YZ=              0.7875
 Traceless Quadrupole moment (field-independent basis, Debye-Ang):
   XX=              2.3929   YY=            -20.2431   ZZ=             17.8502
   XY=            -23.8288   XZ=              5.2478   YZ=              0.7875
 Octapole moment (field-independent basis, Debye-Ang**2):
  XXX=            -44.4804  YYY=            -65.7082  ZZZ=             -9.5650  XYY=            -76.4915
  XXY=            -17.4260  XXZ=             -5.9233  XZZ=              9.7772  YZZ=              2.7543
  YYZ=             12.0975  XYZ=              7.2607
 Hexadecapole moment (field-independent basis, Debye-Ang**3):
 XXXX=          -5546.5023 YYYY=          -1737.9279 ZZZZ=           -244.6686 XXXY=           -365.1052
 XXXZ=             91.0320 YYYX=           -107.6822 YYYZ=              8.3329 ZZZX=              6.5911
 ZZZY=              3.3936 XXYY=          -1403.4496 XXZZ=          -1003.9131 YYZZ=           -278.9691
 XXYZ=             12.8246 YYXZ=             31.0873 ZZXY=             -4.4254
 N-N= 1.171825339503D+03 E-N=-4.277184627265D+03  KE= 8.154589349503D+02
 1\1\GINC-E09\FOpt\RHF\6-31G(d)\C12H14N1O4(1-)\WISE\18-May-2016\1\\# op
 t=z-matrix HF/6-31G* scf=tight\\Title Card Required\\-1,1\C\H,1,B1\H,1
 ,B2,2,A1\H,1,B3,3,A2,2,D1,0\C,1,B4,4,A3,3,D2,0\O,5,B5,1,A4,4,D3,0\N,5,
 B6,1,A5,6,D4,0\H,7,B7,5,A6,1,D5,0\C,7,B8,5,A7,1,D6,0\H,9,B9,7,A8,5,D7,
 0\C,9,B10,7,A9,5,D8,0\H,11,B11,9,A10,7,D9,0\H,11,B12,9,A11,7,D10,0\C,1
 1,B13,9,A12,7,D11,0\C,14,B14,11,A13,9,D12,0\H,15,B15,14,A14,11,D13,0\C
 ,15,B16,14,A15,11,D14,0\H,17,B17,15,A16,14,D15,0\C,17,B18,15,A17,14,D1
 6,0\O,19,B19,17,A18,15,D17,0\C,20,B20,19,A19,17,D18,0\H,21,B21,20,A20,
 19,D19,0\H,21,B22,20,A21,19,D20,0\H,21,B23,20,A22,19,D21,0\C,19,B24,17
 ,A23,15,D22,0\H,25,B25,19,A24,17,D23,0\C,25,B26,19,A25,17,D24,0\H,27,B
 27,25,A26,19,D25,0\C,9,B28,7,A27,5,D26,0\O,29,B29,9,A28,7,D27,0\O,29,B
 30,9,A29,7,D28,0\\B1=1.08473673\B2=1.08338662\B3=1.08409397\B4=1.52067
 9\B5=1.21238253\B6=1.33039411\B7=0.99942577\B8=1.45287893\B9=1.0854189
 9\B10=1.54821641\B11=1.08204234\B12=1.08382336\B13=1.51624996\B14=1.38
 666571\B15=1.07331733\B16=1.39069395\B17=1.0738022\B18=1.38485215\B19=
 1.3636855\B20=1.39153255\B21=1.08597077\B22=1.08190353\B23=1.08632873\
 B24=1.38792804\B25=1.07534314\B26=1.38178689\B27=1.07575788\B28=1.5648
 2092\B29=1.23549162\B30=1.22920428\A1=109.09548746\A2=109.31195388\A3=
 108.7146445\A4=119.59280449\A5=115.41053317\A6=121.18481148\A7=125.640
 62563\A8=108.7659784\A9=112.15795705\A10=108.32579715\A11=108.89707524
 \A12=114.70635895\A13=121.95191557\A14=118.47471162\A15=121.53161015\A
 16=118.85205186\A17=119.88846406\A18=124.48158313\A19=119.04412572\A20
 =111.76498822\A21=106.50890897\A22=111.80605403\A23=119.42964359\A24=1
 18.81582707\A25=119.98651782\A26=119.35496957\A27=107.33640386\A28=115
 .65444707\A29=114.92387566\D1=117.34584358\D2=-124.32747259\D3=-54.394
 20563\D4=-180.50701208\D5=10.03497685\D6=172.6459543\D7=-50.8353218\D8
 =69.21889336\D9=-18.76986154\D10=97.77675535\D11=-139.3880106\D12=-79.
 71196008\D13=3.01828282\D14=180.96735406\D15=180.04348059\D16=-0.43568
 031\D17=-180.25918922\D18=2.49649112\D19=59.7842176\D20=-181.28921655\
 D21=-62.46000232\D22=-0.41382615\D23=180.77973299\D24=0.50596273\D25=1
 81.2761463\D26=-167.01744756\D27=9.81202449\D28=189.6600767\\Version=A
 M64L-G09RevD.01\State=1-A\HF=-816.5303484\RMSD=4.639e-09\RMSF=7.696e-0
 6\Dipole=-3.2430556,0.0002419,0.0568672\Quadrupole=-23.4320432,13.3806
 486,10.0513947,8.3371386,5.9341609,-3.610726\PG=C01 [X(C12H14N1O4)]\\@


 The juvenile sea squirt wanders through the sea searching
 for a suitable rock or hunk of coral to cling to and make
 its home for life.  For this task it has a rudimentary
 nervous system.  When it finds its spot and takes root, it
 doesn't need its brain any more so it eats it.
 It's rather like getting tenure.

                               -- source unknown
 Job cpu time:       0 days  3 hours 31 minutes 16.8 seconds.
 File lengths (MBytes):  RWF=     37 Int=      0 D2E=      0 Chk=      7 Scr=      1
 Normal termination of Gaussian 09 at Wed May 18 23:10:09 2016.
