 Entering Gaussian System, Link 0=/programs/g09/g09
 Input=/scratch2/Wise/temp/temp_05192016/NLYS_all_opt.com
 Output=/scratch2/Wise/temp/temp_05192016/NLYS_all_opt.log
 Initial command:
 /programs/g09/l1.exe "/tmp/Wise/NLYS_all_opt/Gau-25491.inp" -scrdir="/tmp/Wise/NLYS_all_opt/"
 Entering Link 1 = /programs/g09/l1.exe PID=     25499.
  
 Copyright (c) 1988,1990,1992,1993,1995,1998,2003,2009,2013,
            Gaussian, Inc.  All Rights Reserved.
  
 This is part of the Gaussian(R) 09 program.  It is based on
 the Gaussian(R) 03 system (copyright 2003, Gaussian, Inc.),
 the Gaussian(R) 98 system (copyright 1998, Gaussian, Inc.),
 the Gaussian(R) 94 system (copyright 1995, Gaussian, Inc.),
 the Gaussian 92(TM) system (copyright 1992, Gaussian, Inc.),
 the Gaussian 90(TM) system (copyright 1990, Gaussian, Inc.),
 the Gaussian 88(TM) system (copyright 1988, Gaussian, Inc.),
 the Gaussian 86(TM) system (copyright 1986, Carnegie Mellon
 University), and the Gaussian 82(TM) system (copyright 1983,
 Carnegie Mellon University). Gaussian is a federally registered
 trademark of Gaussian, Inc.
  
 This software contains proprietary and confidential information,
 including trade secrets, belonging to Gaussian, Inc.
  
 This software is provided under written license and may be
 used, copied, transmitted, or stored only in accord with that
 written license.
  
 The following legend is applicable only to US Government
 contracts under FAR:
  
                    RESTRICTED RIGHTS LEGEND
  
 Use, reproduction and disclosure by the US Government is
 subject to restrictions as set forth in subparagraphs (a)
 and (c) of the Commercial Computer Software - Restricted
 Rights clause in FAR 52.227-19.
  
 Gaussian, Inc.
 340 Quinnipiac St., Bldg. 40, Wallingford CT 06492
  
  
 ---------------------------------------------------------------
 Warning -- This program may not be used in any manner that
 competes with the business of Gaussian, Inc. or will provide
 assistance to any competitor of Gaussian, Inc.  The licensee
 of this program is prohibited from giving any competitor of
 Gaussian, Inc. access to this program.  By using this program,
 the user acknowledges that Gaussian, Inc. is engaged in the
 business of creating and licensing software in the field of
 computational chemistry and represents and warrants to the
 licensee that it is not a competitor of Gaussian, Inc. and that
 it will not use this program in any manner prohibited above.
 ---------------------------------------------------------------
  

 Cite this work as:
 Gaussian 09, Revision D.01,
 M. J. Frisch, G. W. Trucks, H. B. Schlegel, G. E. Scuseria, 
 M. A. Robb, J. R. Cheeseman, G. Scalmani, V. Barone, B. Mennucci, 
 G. A. Petersson, H. Nakatsuji, M. Caricato, X. Li, H. P. Hratchian, 
 A. F. Izmaylov, J. Bloino, G. Zheng, J. L. Sonnenberg, M. Hada, 
 M. Ehara, K. Toyota, R. Fukuda, J. Hasegawa, M. Ishida, T. Nakajima, 
 Y. Honda, O. Kitao, H. Nakai, T. Vreven, J. A. Montgomery, Jr., 
 J. E. Peralta, F. Ogliaro, M. Bearpark, J. J. Heyd, E. Brothers, 
 K. N. Kudin, V. N. Staroverov, T. Keith, R. Kobayashi, J. Normand, 
 K. Raghavachari, A. Rendell, J. C. Burant, S. S. Iyengar, J. Tomasi, 
 M. Cossi, N. Rega, J. M. Millam, M. Klene, J. E. Knox, J. B. Cross, 
 V. Bakken, C. Adamo, J. Jaramillo, R. Gomperts, R. E. Stratmann, 
 O. Yazyev, A. J. Austin, R. Cammi, C. Pomelli, J. W. Ochterski, 
 R. L. Martin, K. Morokuma, V. G. Zakrzewski, G. A. Voth, 
 P. Salvador, J. J. Dannenberg, S. Dapprich, A. D. Daniels, 
 O. Farkas, J. B. Foresman, J. V. Ortiz, J. Cioslowski, 
 and D. J. Fox, Gaussian, Inc., Wallingford CT, 2013.
 
 ******************************************
 Gaussian 09:  AM64L-G09RevD.01 24-Apr-2013
                18-May-2016 
 ******************************************
 %chk=NLYS_all_opt.chk
 %mem=8GB
 %nproc=8
 Will use up to    8 processors via shared memory.
 ----------------------------------
 # opt=z-matrix HF/6-31G* scf=tight
 ----------------------------------
 1/10=7,18=40,38=1/1,3;
 2/12=2,17=6,18=5,29=3,40=1/2;
 3/5=1,6=6,7=1,11=9,16=1,25=1,30=1,71=1/1,2,3;
 4//1;
 5/5=2,32=2,38=5/2;
 6/7=2,8=2,9=2,10=2,28=1/1;
 7/29=1/1,2,3,16;
 1/10=7,18=40/3(2);
 2/29=3/2;
 99//99;
 2/29=3/2;
 3/5=1,6=6,7=1,11=9,16=1,25=1,30=1,71=1/1,2,3;
 4/5=5,16=3,69=1/1;
 5/5=2,32=2,38=5/2;
 7//1,2,3,16;
 1/18=40/3(-5);
 2/29=3/2;
 6/7=2,8=2,9=2,10=2,19=2,28=1/1;
 99/9=1/99;
 -------------------
 Title Card Required
 -------------------
 Symbolic Z-matrix:
 Charge =  2 Multiplicity = 1
 N
 H                    1    B1
 H                    1    B2       2    A1
 H                    1    B3       2    A2       3    D1       0
 C                    1    B4       2    A3       3    D2       0
 H                    5    B5       1    A4       2    D3       0
 C                    5    B6       1    A5       6    D4       0
 H                    7    B7       5    A6       6    D5       0
 H                    7    B8       5    A7       6    D6       0
 C                    7    B9       5    A8       6    D7       0
 H                    10   B10      7    A9       5    D8       0
 H                    10   B11      7    A10      5    D9       0
 C                    10   B12      7    A11      5    D10      0
 H                    13   B13      10   A12      7    D11      0
 C                    13   B14      10   A13      7    D12      0
 H                    15   B15      13   A14      10   D13      0
 H                    15   B16      13   A15      10   D14      0
 N                    15   B17      13   A16      10   D15      0
 H                    18   B18      15   A17      13   D16      0
 H                    18   B19      15   A18      13   D17      0
 H                    18   B20      15   A19      13   D18      0
 O                    13   B21      10   A20      7    D19      0
 C                    22   B22      13   A21      10   D20      0
 H                    23   B23      22   A22      13   D21      0
 H                    23   B24      22   A23      13   D22      0
 H                    23   B25      22   A24      13   D23      0
 C                    5    B26      7    A25      10   D24      0
 O                    27   B27      5    A26      7    D25      0
 N                    27   B28      5    A27      7    D26      0
 H                    29   B29      27   A28      5    D27      0
 C                    29   B30      27   A29      5    D28      0
 H                    31   B31      29   A30      27   D29      0
 H                    31   B32      29   A31      27   D30      0
 H                    31   B33      29   A32      27   D31      0
       Variables:
  B1                    1.07                     
  B2                    1.07                     
  B3                    1.07                     
  B4                    1.54                     
  B5                    1.08386                  
  B6                    1.53582                  
  B7                    1.08103                  
  B8                    1.08511                  
  B9                    1.53269                  
  B10                   1.08266                  
  B11                   1.08631                  
  B12                   1.53446                  
  B13                   1.09069                  
  B14                   1.5258                   
  B15                   1.07919                  
  B16                   1.07989                  
  B17                   1.50776                  
  B18                   1.00987                  
  B19                   1.00939                  
  B20                   1.01471                  
  B21                   1.40316                  
  B22                   1.41563                  
  B23                   1.0851                   
  B24                   1.07909                  
  B25                   1.08072                  
  B26                   1.53228                  
  B27                   1.20446                  
  B28                   1.34086                  
  B29                   0.99406                  
  B30                   1.45178                  
  B31                   1.08359                  
  B32                   1.07984                  
  B33                   1.08084                  
  A1                  109.47125                  
  A2                  109.47122                  
  A3                  109.4712                   
  A4                  105.94396                  
  A5                  112.79929                  
  A6                  106.94526                  
  A7                  109.66576                  
  A8                  112.76833                  
  A9                  108.12586                  
  A10                 110.68614                  
  A11                 114.13519                  
  A12                 110.25742                  
  A13                 109.31942                  
  A14                 112.98059                  
  A15                 110.61324                  
  A16                 108.43961                  
  A17                 111.93353                  
  A18                 112.7985                   
  A19                 107.07535                  
  A20                 115.0829                   
  A21                 118.06982                  
  A22                 110.55572                  
  A23                 106.43492                  
  A24                 111.39372                  
  A25                 111.89276                  
  A26                 120.73903                  
  A27                 116.07426                  
  A28                 118.41542                  
  A29                 121.62723                  
  A30                 111.57647                  
  A31                 109.8171                   
  A32                 108.57061                  
  D1                 -120.00001                  
  D2                  119.99999                  
  D3                   42.58159                  
  D4                  118.27521                  
  D5                   79.47091                  
  D6                 -164.04037                  
  D7                  -41.59463                  
  D8                  -68.98165                  
  D9                   47.91124                  
  D10                 168.69837                  
  D11                  27.51836                  
  D12                 147.54554                  
  D13                 -70.70013                  
  D14                  53.10689                  
  D15                 169.19328                  
  D16                  71.43858                  
  D17                -166.7209                   
  D18                 -46.1577                   
  D19                 -96.63933                  
  D20                  64.00119                  
  D21                  54.89258                  
  D22                 173.57942                  
  D23                 -67.38617                  
  D24                  75.53129                  
  D25                 -17.02215                  
  D26                 164.07941                  
  D27                   5.98419                  
  D28                 173.95113                  
  D29                 -70.53817                  
  D30                  49.95743                  
  D31                 169.16693                  
 
     3 tetrahedral angles replaced.
    3 tetrahedral angles replaced.

 GradGradGradGradGradGradGradGradGradGradGradGradGradGradGradGradGradGrad
 Berny optimization.
 Initialization pass.
                       ----------------------------
                       !    Initial Parameters    !
                       ! (Angstroms and Degrees)  !
 ----------------------                            ----------------------
 !      Name          Value   Derivative information (Atomic Units)     !
 ------------------------------------------------------------------------
 !       B1          1.07     estimate D2E/DX2                          !
 !       B2          1.07     estimate D2E/DX2                          !
 !       B3          1.07     estimate D2E/DX2                          !
 !       B4          1.54     estimate D2E/DX2                          !
 !       B5          1.0839   estimate D2E/DX2                          !
 !       B6          1.5358   estimate D2E/DX2                          !
 !       B7          1.081    estimate D2E/DX2                          !
 !       B8          1.0851   estimate D2E/DX2                          !
 !       B9          1.5327   estimate D2E/DX2                          !
 !       B10         1.0827   estimate D2E/DX2                          !
 !       B11         1.0863   estimate D2E/DX2                          !
 !       B12         1.5345   estimate D2E/DX2                          !
 !       B13         1.0907   estimate D2E/DX2                          !
 !       B14         1.5258   estimate D2E/DX2                          !
 !       B15         1.0792   estimate D2E/DX2                          !
 !       B16         1.0799   estimate D2E/DX2                          !
 !       B17         1.5078   estimate D2E/DX2                          !
 !       B18         1.0099   estimate D2E/DX2                          !
 !       B19         1.0094   estimate D2E/DX2                          !
 !       B20         1.0147   estimate D2E/DX2                          !
 !       B21         1.4032   estimate D2E/DX2                          !
 !       B22         1.4156   estimate D2E/DX2                          !
 !       B23         1.0851   estimate D2E/DX2                          !
 !       B24         1.0791   estimate D2E/DX2                          !
 !       B25         1.0807   estimate D2E/DX2                          !
 !       B26         1.5323   estimate D2E/DX2                          !
 !       B27         1.2045   estimate D2E/DX2                          !
 !       B28         1.3409   estimate D2E/DX2                          !
 !       B29         0.9941   estimate D2E/DX2                          !
 !       B30         1.4518   estimate D2E/DX2                          !
 !       B31         1.0836   estimate D2E/DX2                          !
 !       B32         1.0798   estimate D2E/DX2                          !
 !       B33         1.0808   estimate D2E/DX2                          !
 !       A1        109.4712   estimate D2E/DX2                          !
 !       A2        109.4712   estimate D2E/DX2                          !
 !       A3        109.4712   estimate D2E/DX2                          !
 !       A4        105.944    estimate D2E/DX2                          !
 !       A5        112.7993   estimate D2E/DX2                          !
 !       A6        106.9453   estimate D2E/DX2                          !
 !       A7        109.6658   estimate D2E/DX2                          !
 !       A8        112.7683   estimate D2E/DX2                          !
 !       A9        108.1259   estimate D2E/DX2                          !
 !       A10       110.6861   estimate D2E/DX2                          !
 !       A11       114.1352   estimate D2E/DX2                          !
 !       A12       110.2574   estimate D2E/DX2                          !
 !       A13       109.3194   estimate D2E/DX2                          !
 !       A14       112.9806   estimate D2E/DX2                          !
 !       A15       110.6132   estimate D2E/DX2                          !
 !       A16       108.4396   estimate D2E/DX2                          !
 !       A17       111.9335   estimate D2E/DX2                          !
 !       A18       112.7985   estimate D2E/DX2                          !
 !       A19       107.0753   estimate D2E/DX2                          !
 !       A20       115.0829   estimate D2E/DX2                          !
 !       A21       118.0698   estimate D2E/DX2                          !
 !       A22       110.5557   estimate D2E/DX2                          !
 !       A23       106.4349   estimate D2E/DX2                          !
 !       A24       111.3937   estimate D2E/DX2                          !
 !       A25       111.8928   estimate D2E/DX2                          !
 !       A26       120.739    estimate D2E/DX2                          !
 !       A27       116.0743   estimate D2E/DX2                          !
 !       A28       118.4154   estimate D2E/DX2                          !
 !       A29       121.6272   estimate D2E/DX2                          !
 !       A30       111.5765   estimate D2E/DX2                          !
 !       A31       109.8171   estimate D2E/DX2                          !
 !       A32       108.5706   estimate D2E/DX2                          !
 !       D1       -120.0      estimate D2E/DX2                          !
 !       D2        120.0      estimate D2E/DX2                          !
 !       D3         42.5816   estimate D2E/DX2                          !
 !       D4        118.2752   estimate D2E/DX2                          !
 !       D5         79.4709   estimate D2E/DX2                          !
 !       D6       -164.0404   estimate D2E/DX2                          !
 !       D7        -41.5946   estimate D2E/DX2                          !
 !       D8        -68.9816   estimate D2E/DX2                          !
 !       D9         47.9112   estimate D2E/DX2                          !
 !       D10       168.6984   estimate D2E/DX2                          !
 !       D11        27.5184   estimate D2E/DX2                          !
 !       D12       147.5455   estimate D2E/DX2                          !
 !       D13       -70.7001   estimate D2E/DX2                          !
 !       D14        53.1069   estimate D2E/DX2                          !
 !       D15       169.1933   estimate D2E/DX2                          !
 !       D16        71.4386   estimate D2E/DX2                          !
 !       D17      -166.7209   estimate D2E/DX2                          !
 !       D18       -46.1577   estimate D2E/DX2                          !
 !       D19       -96.6393   estimate D2E/DX2                          !
 !       D20        64.0012   estimate D2E/DX2                          !
 !       D21        54.8926   estimate D2E/DX2                          !
 !       D22       173.5794   estimate D2E/DX2                          !
 !       D23       -67.3862   estimate D2E/DX2                          !
 !       D24        75.5313   estimate D2E/DX2                          !
 !       D25       -17.0221   estimate D2E/DX2                          !
 !       D26       164.0794   estimate D2E/DX2                          !
 !       D27         5.9842   estimate D2E/DX2                          !
 !       D28       173.9511   estimate D2E/DX2                          !
 !       D29       -70.5382   estimate D2E/DX2                          !
 !       D30        49.9574   estimate D2E/DX2                          !
 !       D31       169.1669   estimate D2E/DX2                          !
 ------------------------------------------------------------------------
 Trust Radius=3.00D-01 FncErr=1.00D-07 GrdErr=1.00D-07
 Number of steps in this run=    106 maximum allowed number of steps=    192.
 GradGradGradGradGradGradGradGradGradGradGradGradGradGradGradGradGradGrad

 ---------------------------------------------------------------------------------------------------
                            Z-MATRIX (ANGSTROMS AND DEGREES)
   CD    Cent   Atom    N1       Length/X        N2       Alpha/Y        N3        Beta/Z          J
 ---------------------------------------------------------------------------------------------------
      1      1  N 
      2      2  H        1   1.070000(     1)
      3      3  H        1   1.070000(     2)      2  109.471(    34)
      4      4  H        1   1.070000(     3)      2  109.471(    35)      3 -120.000(    66)      0
      5      5  C        1   1.540000(     4)      2  109.471(    36)      3  120.000(    67)      0
      6      6  H        5   1.083863(     5)      1  105.944(    37)      2   42.582(    68)      0
      7      7  C        5   1.535818(     6)      1  112.799(    38)      6  118.275(    69)      0
      8      8  H        7   1.081032(     7)      5  106.945(    39)      6   79.471(    70)      0
      9      9  H        7   1.085110(     8)      5  109.666(    40)      6 -164.040(    71)      0
     10     10  C        7   1.532690(     9)      5  112.768(    41)      6  -41.595(    72)      0
     11     11  H       10   1.082664(    10)      7  108.126(    42)      5  -68.982(    73)      0
     12     12  H       10   1.086311(    11)      7  110.686(    43)      5   47.911(    74)      0
     13     13  C       10   1.534456(    12)      7  114.135(    44)      5  168.698(    75)      0
     14     14  H       13   1.090693(    13)     10  110.257(    45)      7   27.518(    76)      0
     15     15  C       13   1.525798(    14)     10  109.319(    46)      7  147.546(    77)      0
     16     16  H       15   1.079192(    15)     13  112.981(    47)     10  -70.700(    78)      0
     17     17  H       15   1.079892(    16)     13  110.613(    48)     10   53.107(    79)      0
     18     18  N       15   1.507756(    17)     13  108.440(    49)     10  169.193(    80)      0
     19     19  H       18   1.009871(    18)     15  111.934(    50)     13   71.439(    81)      0
     20     20  H       18   1.009393(    19)     15  112.799(    51)     13 -166.721(    82)      0
     21     21  H       18   1.014705(    20)     15  107.075(    52)     13  -46.158(    83)      0
     22     22  O       13   1.403163(    21)     10  115.083(    53)      7  -96.639(    84)      0
     23     23  C       22   1.415626(    22)     13  118.070(    54)     10   64.001(    85)      0
     24     24  H       23   1.085100(    23)     22  110.556(    55)     13   54.893(    86)      0
     25     25  H       23   1.079088(    24)     22  106.435(    56)     13  173.579(    87)      0
     26     26  H       23   1.080722(    25)     22  111.394(    57)     13  -67.386(    88)      0
     27     27  C        5   1.532280(    26)      7  111.893(    58)     10   75.531(    89)      0
     28     28  O       27   1.204457(    27)      5  120.739(    59)      7  -17.022(    90)      0
     29     29  N       27   1.340859(    28)      5  116.074(    60)      7  164.079(    91)      0
     30     30  H       29   0.994059(    29)     27  118.415(    61)      5    5.984(    92)      0
     31     31  C       29   1.451783(    30)     27  121.627(    62)      5  173.951(    93)      0
     32     32  H       31   1.083591(    31)     29  111.576(    63)     27  -70.538(    94)      0
     33     33  H       31   1.079843(    32)     29  109.817(    64)     27   49.957(    95)      0
     34     34  H       31   1.080835(    33)     29  108.571(    65)     27  169.167(    96)      0
 ---------------------------------------------------------------------------------------------------
                         Z-Matrix orientation:                         
 ---------------------------------------------------------------------
 Center     Atomic      Atomic             Coordinates (Angstroms)
 Number     Number       Type             X           Y           Z
 ---------------------------------------------------------------------
      1          7           0        0.000000    0.000000    0.000000
      2          1           0        0.000000    0.000000    1.070000
      3          1           0        1.008806    0.000000   -0.356667
      4          1           0       -0.504403    0.873651   -0.356667
      5          6           0       -0.725963   -1.257405   -0.513333
      6          1           0       -1.604906   -1.369437    0.110899
      7          6           0       -1.185678   -1.125075   -1.972746
      8          1           0       -1.512062   -0.103521   -2.108878
      9          1           0       -0.344569   -1.293616   -2.637271
     10          6           0       -2.322223   -2.090613   -2.326497
     11          1           0       -1.922778   -3.096889   -2.322637
     12          1           0       -3.103547   -2.056278   -1.572556
     13          6           0       -2.989954   -1.805332   -3.678276
     14          1           0       -2.284113   -1.319489   -4.353076
     15          6           0       -3.453768   -3.119487   -4.299511
     16          1           0       -2.636255   -3.736269   -4.639965
     17          1           0       -4.068984   -3.672073   -3.605016
     18          7           0       -4.334023   -2.803469   -5.482141
     19          1           0       -3.804458   -2.433516   -6.258372
     20          1           0       -4.847716   -3.606863   -5.813129
     21          1           0       -4.984598   -2.083529   -5.185383
     22          8           0       -4.166551   -1.043731   -3.611577
     23          6           0       -4.073259    0.285877   -3.134674
     24          1           0       -3.342141    0.846009   -3.708400
     25          1           0       -5.048559    0.727609   -3.269185
     26          1           0       -3.811475    0.311254   -2.086444
     27          6           0        0.127458   -2.511081   -0.294583
     28          8           0        0.122649   -3.407219   -1.099338
     29          7           0        0.842549   -2.546806    0.839115
     30          1           0        0.712761   -1.818766    1.503393
     31          6           0        1.590222   -3.728041    1.230705
     32          1           0        0.932057   -4.535346    1.529449
     33          1           0        2.198489   -4.066626    0.405215
     34          1           0        2.232559   -3.469408    2.060594
 ---------------------------------------------------------------------
                    Distance matrix (angstroms):
                    1          2          3          4          5
     1  N    0.000000
     2  H    1.070000   0.000000
     3  H    1.070000   1.747303   0.000000
     4  H    1.070000   1.747303   1.747303   0.000000
     5  C    1.540000   2.148263   2.148263   2.148263   0.000000
     6  H    2.112671   2.317532   2.987552   2.541883   1.083863
     7  C    2.561904   3.453973   2.948434   2.659089   1.535818
     8  H    2.597001   3.521692   3.071764   2.245103   2.120180
     9  H    2.957595   3.941577   2.950631   3.150198   2.158213
    10  C    3.895635   4.615146   4.398482   3.996444   2.555356
    11  H    4.322319   4.979737   4.695737   4.652098   2.844231
    12  H    4.041437   4.565456   4.755850   4.101027   2.722693
    13  C    5.072352   5.894503   5.502943   4.938421   3.929725
    14  H    5.089941   6.030587   5.343749   4.893723   4.144311
    15  C    6.336048   7.105727   6.722483   6.339553   5.024282
    16  H    6.514509   7.315275   6.752246   6.644005   5.179100
    17  H    6.560251   7.203925   7.058318   6.627339   5.154117
    18  N    7.529745   8.341088   7.916801   7.379545   6.332256
    19  H    7.717714   8.608190   7.994975   7.527140   6.623129
    20  H    8.384645   9.159000   8.779595   8.289291   7.113131
    21  H    7.488358   8.265417   7.973611   7.220357   6.375461
    22  O    5.611863   6.353478   6.202268   5.261380   4.634913
    23  C    5.147751   5.861096   5.798830   4.560651   4.523001
    24  H    5.063385   5.892261   5.557030   4.391769   4.634349
    25  H    6.058460   6.696707   6.760462   5.399393   5.497257
    26  H    4.356314   4.958564   5.130703   3.774274   3.802072
    27  C    2.531512   2.860745   2.661984   3.443765   1.532280
    28  O    3.582280   4.041066   3.598052   4.389830   2.384375
    29  N    2.810733   2.692474   2.818466   3.865708   2.439651
    30  H    2.464980   2.000941   2.618277   3.491478   2.540125
    31  C    4.235768   4.056220   4.093419   5.299318   3.809255
    32  H    4.876198   4.652869   4.912503   5.905769   4.203200
    33  H    4.640582   4.670411   4.305027   5.682642   4.157868
    34  H    4.611634   4.242923   4.401990   5.674177   4.502323
                    6          7          8          9         10
     6  H    0.000000
     7  C    2.139402   0.000000
     8  H    2.557063   1.081032   0.000000
     9  H    3.024340   1.085110   1.748875   0.000000
    10  C    2.641124   1.532690   2.156909   2.154739   0.000000
    11  H    3.001205   2.133961   3.028966   2.416925   1.082664
    12  H    2.356204   2.169219   2.575602   3.054051   1.086311
    13  C    4.057857   2.574294   2.746513   2.888529   1.534456
    14  H    4.515627   2.628750   2.666659   2.589689   2.168665
    15  C    5.092414   3.812577   4.202993   3.970386   2.496350
    16  H    5.407059   4.004568   4.568049   3.902456   2.856385
    17  H    5.018151   4.179110   4.637979   4.523810   2.680821
    18  N    6.386440   5.004491   5.160629   5.127249   3.809671
    19  H    6.821869   5.190049   5.282259   5.136397   4.215951
    20  H    7.114492   5.858185   6.092739   5.976246   4.564398
    21  H    6.323199   5.066701   5.044187   5.352261   3.906599
    22  O    4.530445   3.402644   3.191929   3.952120   2.479705
    23  C    4.400746   3.417453   2.786327   4.079869   3.060552
    24  H    4.744811   3.398234   2.609457   3.835459   3.402005
    25  H    5.261303   4.476052   3.813647   5.158700   4.032858
    26  H    3.538641   2.995126   2.336631   3.859851   2.836276
    27  C    2.113966   2.541962   3.431624   2.682018   3.210359
    28  O    2.932861   2.771776   3.821763   2.655343   3.035913
    29  N    2.811856   3.747211   4.494941   3.881365   4.499443
    30  H    2.740897   4.021047   4.576068   4.305674   4.894189
    31  C    4.126236   4.974249   5.823584   4.962971   5.535529
    32  H    4.297843   5.327300   6.233155   5.431404   5.606726
    33  H    4.671966   5.075432   5.982896   4.838744   5.639478
    34  H    4.789294   5.783432   6.537269   5.783217   6.472533
                   11         12         13         14         15
    11  H    0.000000
    12  H    1.743476   0.000000
    13  C    2.155165   2.123660   0.000000
    14  H    2.722571   2.990923   1.090693   0.000000
    15  C    2.500494   2.947771   1.525798   2.147313   0.000000
    16  H    2.507561   3.528417   2.185970   2.459092   1.079192
    17  H    2.565450   2.770155   2.157405   3.046311   1.079892
    18  N    3.985305   4.166199   2.461042   2.771121   1.507756
    19  H    4.412572   4.752942   2.777576   2.680047   2.104917
    20  H    4.582452   4.840340   3.354757   3.733081   2.114631
    21  H    4.312418   4.073280   2.515427   2.927304   2.049736
    22  O    3.303232   2.512536   1.403163   2.041920   2.300017
    23  C    4.089875   2.977624   2.417066   2.694948   3.652002
    24  H    4.413771   3.611375   2.674799   2.494877   4.010864
    25  H    5.029239   3.796268   3.289529   3.606604   4.290114
    26  H    3.903640   2.523976   2.772862   3.182732   4.098244
    27  C    2.942727   3.504205   4.654645   4.868977   5.406920
    28  O    2.403442   3.529492   4.348017   4.553892   4.807770
    29  N    4.236308   4.650639   5.970316   6.183945   6.722483
    30  H    4.818524   4.907349   6.368671   6.597633   7.261235
    31  C    5.036443   5.717038   6.983760   7.210423   7.509691
    32  H    5.005778   5.661653   7.067924   7.435697   7.430807
    33  H    5.036507   6.005385   6.979132   7.090967   7.414818
    34  H    6.051307   6.608385   7.935895   8.133736   8.538601
                   16         17         18         19         20
    16  H    0.000000
    17  H    1.768602   0.000000
    18  N    2.112295   2.085261   0.000000
    19  H    2.383507   2.940118   1.009871   0.000000
    20  H    2.506715   2.342315   1.009393   1.631985   0.000000
    21  H    2.922968   2.420616   1.014705   1.632951   1.653284
    22  O    3.263303   2.630161   2.573662   3.011335   3.446805
    23  C    4.528635   3.985801   3.888786   4.150282   4.788249
    24  H    4.728991   4.577341   4.177161   4.179877   5.150214
    25  H    5.255897   4.519906   4.228031   4.525012   5.029874
    26  H    4.927885   4.270746   4.637382   4.993876   5.505780
    27  C    5.293538   5.469643   6.848435   7.143722   7.510489
    28  O    4.500651   4.890639   6.279761   6.556363   6.853044
    29  N    6.598274   6.718608   8.174414   8.484210   8.817890
    30  H    7.254900   7.238486   8.673947   9.001565   9.362034
    31  C    7.233806   7.444054   9.000767   9.320120   9.543444
    32  H    7.171684   7.219307   8.938310   9.354273   9.390491
    33  H    6.995550   7.451096   8.884268   9.116238   9.408942
    34  H    8.286982   8.476418  10.022791  10.330724  10.589840
                   21         22         23         24         25
    21  H    0.000000
    22  O    2.056027   0.000000
    23  C    3.263438   1.415626   0.000000
    24  H    3.668969   2.064011   1.085100   0.000000
    25  H    3.402705   2.008187   1.079088   1.766010   0.000000
    26  H    4.088353   2.070771   1.080722   1.771152   1.761421
    27  C    7.087725   5.620861   5.790951   5.912894   6.791798
    28  O    6.673221   5.504058   5.948713   6.074695   6.967526
    29  N    8.394334   6.867239   6.926778   7.050015   7.893356
    30  H    8.790320   7.111348   6.989075   7.120817   7.902805
    31  C    9.332677   7.987092   8.200188   8.345352   9.174707
    32  H    9.279396   8.038490   8.369673   8.640765   9.300181
    33  H    9.315803   8.110871   8.414862   8.470796   9.434278
    34  H   10.320475   8.888535   8.992014   9.109413   9.951693
                   26         27         28         29         30
    26  H    0.000000
    27  C    5.166385   0.000000
    28  O    5.502613   1.204457   0.000000
    29  N    6.195752   1.340859   2.239680   0.000000
    30  H    6.155698   2.013603   3.105741   0.994059   0.000000
    31  C    7.516496   2.438682   2.772327   1.451783   2.118875
    32  H    7.685396   2.841148   2.972934   2.106862   2.725542
    33  H    7.841802   2.683021   2.647189   2.082473   2.909684
    34  H    8.247526   3.301015   3.800101   2.067689   2.311900
                   31         32         33         34
    31  C    0.000000
    32  H    1.083591   0.000000
    33  H    1.079843   1.757114   0.000000
    34  H    1.080835   1.763418   1.760145   0.000000
 Stoichiometry    C8H21N3O2(2+)
 Framework group  C1[X(C8H21N3O2)]
 Deg. of freedom    96
 Full point group                 C1      NOp   1
 Largest Abelian subgroup         C1      NOp   1
 Largest concise Abelian subgroup C1      NOp   1
                         Standard orientation:                         
 ---------------------------------------------------------------------
 Center     Atomic      Atomic             Coordinates (Angstroms)
 Number     Number       Type             X           Y           Z
 ---------------------------------------------------------------------
      1          7           0       -2.296450    2.101915    0.390342
      2          1           0       -3.054826    2.372915   -0.314162
      3          1           0       -2.748537    1.886997    1.336031
      4          1           0       -1.606341    2.912126    0.500828
      5          6           0       -1.547532    0.855103   -0.115801
      6          1           0       -1.386707    1.014259   -1.175784
      7          6           0       -0.179084    0.669220    0.556162
      8          1           0        0.244701    1.655211    0.686006
      9          1           0       -0.312173    0.235328    1.541803
     10          6           0        0.771969   -0.206428   -0.267171
     11          1           0        0.392367   -1.220283   -0.254400
     12          1           0        0.786871    0.113958   -1.305054
     13          6           0        2.224335   -0.192608    0.227801
     14          1           0        2.256620    0.015471    1.297975
     15          6           0        2.861047   -1.553575   -0.037584
     16          1           0        2.471208   -2.332553    0.599498
     17          1           0        2.744997   -1.831897   -1.074520
     18          7           0        4.345009   -1.441176    0.204392
     19          1           0        4.561093   -1.348210    1.186484
     20          1           0        4.860479   -2.232406   -0.152149
     21          1           0        4.659196   -0.594903   -0.259003
     22          8           0        3.073172    0.700334   -0.443761
     23          6           0        2.799152    2.085330   -0.340345
     24          1           0        2.749355    2.387166    0.700740
     25          1           0        3.618872    2.595543   -0.822188
     26          1           0        1.875757    2.342834   -0.839338
     27          6           0       -2.420680   -0.397767    0.009939
     28          8           0       -1.934002   -1.460820    0.299387
     29          7           0       -3.727325   -0.233225   -0.242065
     30          1           0       -4.036722    0.649586   -0.578327
     31          6           0       -4.642048   -1.359755   -0.285481
     32          1           0       -4.472343   -1.977403   -1.159484
     33          1           0       -4.514879   -1.968813    0.597094
     34          1           0       -5.653933   -0.980743   -0.310863
 ---------------------------------------------------------------------
 Rotational constants (GHZ):      1.4305560      0.3129323      0.2656165
 Standard basis: 6-31G(d) (6D, 7F)
 There are   237 symmetry adapted cartesian basis functions of A   symmetry.
 There are   237 symmetry adapted basis functions of A   symmetry.
   237 basis functions,   448 primitive gaussians,   237 cartesian basis functions
    52 alpha electrons       52 beta electrons
       nuclear repulsion energy       888.0569829671 Hartrees.
 NAtoms=   34 NActive=   34 NUniq=   34 SFac= 1.00D+00 NAtFMM=   60 NAOKFM=F Big=F
 Integral buffers will be    131072 words long.
 Raffenetti 1 integral format.
 Two-electron integral symmetry is turned on.
 One-electron integrals computed using PRISM.
 NBasis=   237 RedAO= T EigKep=  2.20D-03  NBF=   237
 NBsUse=   237 1.00D-06 EigRej= -1.00D+00 NBFU=   237
 ExpMin= 1.61D-01 ExpMax= 5.48D+03 ExpMxC= 8.25D+02 IAcc=1 IRadAn=         1 AccDes= 0.00D+00
 Harris functional with IExCor=  205 and IRadAn=       1 diagonalized for initial guess.
 HarFok:  IExCor=  205 AccDes= 0.00D+00 IRadAn=         1 IDoV= 1 UseB2=F ITyADJ=14
 ICtDFT=  3500011 ScaDFX=  1.000000  1.000000  1.000000  1.000000
 FoFCou: FMM=F IPFlag=           0 FMFlag=      100000 FMFlg1=           0
         NFxFlg=           0 DoJE=T BraDBF=F KetDBF=T FulRan=T
         wScrn=  0.000000 ICntrl=     500 IOpCl=  0 I1Cent=   200000004 NGrid=           0
         NMat0=    1 NMatS0=      1 NMatT0=    0 NMatD0=    1 NMtDS0=    0 NMtDT0=    0
 Petite list used in FoFCou.
 Keep R1 ints in memory in canonical form, NReq=404649997.
 Requested convergence on RMS density matrix=1.00D-08 within 128 cycles.
 Requested convergence on MAX density matrix=1.00D-06.
 Requested convergence on             energy=1.00D-06.
 No special actions if energy rises.
 SCF Done:  E(RHF) =  -627.700353993     A.U. after   14 cycles
            NFock= 14  Conv=0.50D-08     -V/T= 2.0018

 **********************************************************************

            Population analysis using the SCF density.

 **********************************************************************

 Orbital symmetries:
       Occupied  (A) (A) (A) (A) (A) (A) (A) (A) (A) (A) (A) (A)
                 (A) (A) (A) (A) (A) (A) (A) (A) (A) (A) (A) (A)
                 (A) (A) (A) (A) (A) (A) (A) (A) (A) (A) (A) (A)
                 (A) (A) (A) (A) (A) (A) (A) (A) (A) (A) (A) (A)
                 (A) (A) (A) (A)
       Virtual   (A) (A) (A) (A) (A) (A) (A) (A) (A) (A) (A) (A)
                 (A) (A) (A) (A) (A) (A) (A) (A) (A) (A) (A) (A)
                 (A) (A) (A) (A) (A) (A) (A) (A) (A) (A) (A) (A)
                 (A) (A) (A) (A) (A) (A) (A) (A) (A) (A) (A) (A)
                 (A) (A) (A) (A) (A) (A) (A) (A) (A) (A) (A) (A)
                 (A) (A) (A) (A) (A) (A) (A) (A) (A) (A) (A) (A)
                 (A) (A) (A) (A) (A) (A) (A) (A) (A) (A) (A) (A)
                 (A) (A) (A) (A) (A) (A) (A) (A) (A) (A) (A) (A)
                 (A) (A) (A) (A) (A) (A) (A) (A) (A) (A) (A) (A)
                 (A) (A) (A) (A) (A) (A) (A) (A) (A) (A) (A) (A)
                 (A) (A) (A) (A) (A) (A) (A) (A) (A) (A) (A) (A)
                 (A) (A) (A) (A) (A) (A) (A) (A) (A) (A) (A) (A)
                 (A) (A) (A) (A) (A) (A) (A) (A) (A) (A) (A) (A)
                 (A) (A) (A) (A) (A) (A) (A) (A) (A) (A) (A) (A)
                 (A) (A) (A) (A) (A) (A) (A) (A) (A) (A) (A) (A)
                 (A) (A) (A) (A) (A)
 The electronic state is 1-A.
 Alpha  occ. eigenvalues --  -20.82221 -20.77443 -16.00546 -15.95533 -15.83130
 Alpha  occ. eigenvalues --  -11.60439 -11.58485 -11.55518 -11.55289 -11.50738
 Alpha  occ. eigenvalues --  -11.50501 -11.48361 -11.45676  -1.64592  -1.64270
 Alpha  occ. eigenvalues --   -1.58486  -1.57623  -1.47548  -1.36044  -1.31042
 Alpha  occ. eigenvalues --   -1.23665  -1.18235  -1.17289  -1.11821  -1.07795
 Alpha  occ. eigenvalues --   -1.05752  -1.04462  -1.04196  -1.02916  -1.02297
 Alpha  occ. eigenvalues --   -0.97495  -0.94683  -0.93626  -0.92097  -0.89630
 Alpha  occ. eigenvalues --   -0.87906  -0.87406  -0.85870  -0.85098  -0.83801
 Alpha  occ. eigenvalues --   -0.81871  -0.80605  -0.79822  -0.78357  -0.76037
 Alpha  occ. eigenvalues --   -0.75594  -0.75284  -0.74781  -0.72421  -0.68188
 Alpha  occ. eigenvalues --   -0.66701  -0.62399
 Alpha virt. eigenvalues --   -0.13146  -0.07357  -0.06947  -0.06197  -0.04489
 Alpha virt. eigenvalues --   -0.01901  -0.00961   0.00135   0.00824   0.02625
 Alpha virt. eigenvalues --    0.03325   0.04423   0.04480   0.05498   0.06428
 Alpha virt. eigenvalues --    0.06998   0.07776   0.08056   0.09570   0.10005
 Alpha virt. eigenvalues --    0.11174   0.12214   0.12756   0.13764   0.15182
 Alpha virt. eigenvalues --    0.15886   0.16630   0.17153   0.18183   0.19544
 Alpha virt. eigenvalues --    0.22464   0.23831   0.28641   0.35326   0.42974
 Alpha virt. eigenvalues --    0.43989   0.47035   0.48284   0.48554   0.50459
 Alpha virt. eigenvalues --    0.51060   0.52870   0.54521   0.55154   0.56500
 Alpha virt. eigenvalues --    0.56957   0.57303   0.60636   0.61015   0.62312
 Alpha virt. eigenvalues --    0.62559   0.67067   0.68018   0.69978   0.70850
 Alpha virt. eigenvalues --    0.71782   0.74626   0.75139   0.75958   0.76654
 Alpha virt. eigenvalues --    0.78230   0.78775   0.79959   0.81529   0.82383
 Alpha virt. eigenvalues --    0.84138   0.84847   0.84909   0.85252   0.86563
 Alpha virt. eigenvalues --    0.87032   0.88491   0.89142   0.89822   0.91778
 Alpha virt. eigenvalues --    0.92078   0.93041   0.93772   0.94298   0.95018
 Alpha virt. eigenvalues --    0.95465   0.97659   0.98855   0.99265   1.00243
 Alpha virt. eigenvalues --    1.02615   1.03144   1.04056   1.06395   1.07687
 Alpha virt. eigenvalues --    1.12037   1.14185   1.17747   1.18572   1.22192
 Alpha virt. eigenvalues --    1.25804   1.31389   1.34458   1.36305   1.37683
 Alpha virt. eigenvalues --    1.39173   1.40316   1.42672   1.46920   1.49398
 Alpha virt. eigenvalues --    1.51649   1.53700   1.55220   1.56885   1.61749
 Alpha virt. eigenvalues --    1.63357   1.65398   1.67473   1.69485   1.75889
 Alpha virt. eigenvalues --    1.78097   1.81188   1.85926   1.87097   1.87838
 Alpha virt. eigenvalues --    1.89333   1.91398   1.92456   1.94554   1.96704
 Alpha virt. eigenvalues --    1.98428   1.99999   2.01140   2.03428   2.04120
 Alpha virt. eigenvalues --    2.05033   2.09862   2.10569   2.11004   2.13324
 Alpha virt. eigenvalues --    2.15366   2.15626   2.19938   2.20581   2.21394
 Alpha virt. eigenvalues --    2.24698   2.27806   2.28445   2.31141   2.33890
 Alpha virt. eigenvalues --    2.34540   2.38933   2.41227   2.41738   2.43677
 Alpha virt. eigenvalues --    2.46326   2.47010   2.50055   2.52488   2.53712
 Alpha virt. eigenvalues --    2.54189   2.57992   2.61212   2.66992   2.68562
 Alpha virt. eigenvalues --    2.69413   2.71231   2.72193   2.78888   2.81490
 Alpha virt. eigenvalues --    2.86053   2.91219   2.99590   3.07073   3.07842
 Alpha virt. eigenvalues --    3.17428   3.31328   3.85700   3.92480   4.15377
 Alpha virt. eigenvalues --    4.17373   4.26302   4.33765   4.43980   4.46263
 Alpha virt. eigenvalues --    4.49940   4.54963   4.69439   4.74425   4.78577
          Condensed to atoms (all electrons):
               1          2          3          4          5          6
     1  N    7.015361   0.294409   0.288857   0.291832   0.125665  -0.035059
     2  H    0.294409   0.256497  -0.008004  -0.008179  -0.016359  -0.002265
     3  H    0.288857  -0.008004   0.250411  -0.006977  -0.019407   0.002269
     4  H    0.291832  -0.008179  -0.006977   0.252355  -0.017493  -0.000608
     5  C    0.125665  -0.016359  -0.019407  -0.017493   5.400421   0.392525
     6  H   -0.035059  -0.002265   0.002269  -0.000608   0.392525   0.417663
     7  C   -0.048724   0.002576  -0.000165  -0.001550   0.308418  -0.032234
     8  H   -0.003357  -0.000031   0.000032   0.004226  -0.055496  -0.000832
     9  H    0.000394  -0.000067   0.000668  -0.000070  -0.036291   0.003075
    10  C    0.002394  -0.000064  -0.000040  -0.000041  -0.035837  -0.001712
    11  H   -0.000017   0.000001   0.000004   0.000004  -0.004227   0.000096
    12  H    0.000048   0.000000  -0.000001   0.000009  -0.003673   0.002598
    13  C   -0.000029   0.000001   0.000001  -0.000009   0.003711  -0.000090
    14  H   -0.000002   0.000000   0.000000   0.000000   0.000100  -0.000003
    15  C    0.000000   0.000000   0.000000   0.000000  -0.000095   0.000000
    16  H    0.000000   0.000000   0.000000   0.000000   0.000000   0.000000
    17  H    0.000000   0.000000   0.000000   0.000000  -0.000001  -0.000001
    18  N    0.000000   0.000000   0.000000   0.000000   0.000000   0.000000
    19  H    0.000000   0.000000   0.000000   0.000000   0.000000   0.000000
    20  H    0.000000   0.000000   0.000000   0.000000   0.000000   0.000000
    21  H    0.000000   0.000000   0.000000   0.000000   0.000000   0.000000
    22  O    0.000000   0.000000   0.000000   0.000000  -0.000100  -0.000012
    23  C   -0.000006   0.000000   0.000000   0.000000   0.000080   0.000026
    24  H    0.000001   0.000000   0.000000  -0.000002   0.000015  -0.000004
    25  H    0.000000   0.000000   0.000000   0.000000  -0.000003   0.000000
    26  H   -0.000018   0.000000   0.000000   0.000013   0.000403   0.000177
    27  C   -0.039155  -0.002002  -0.000528   0.002057   0.325392  -0.026980
    28  O    0.000922  -0.000005  -0.000014  -0.000045  -0.077711   0.000122
    29  N   -0.000413   0.001610   0.004799   0.000081  -0.138412   0.000263
    30  H   -0.000835   0.004144  -0.000513   0.000082   0.001798  -0.000092
    31  C   -0.000219  -0.000035  -0.000125   0.000004   0.003580  -0.000108
    32  H    0.000008  -0.000001   0.000007   0.000000  -0.000311   0.000028
    33  H   -0.000014   0.000005  -0.000027   0.000000   0.000248  -0.000008
    34  H   -0.000010  -0.000002  -0.000004   0.000000   0.000002  -0.000002
               7          8          9         10         11         12
     1  N   -0.048724  -0.003357   0.000394   0.002394  -0.000017   0.000048
     2  H    0.002576  -0.000031  -0.000067  -0.000064   0.000001   0.000000
     3  H   -0.000165   0.000032   0.000668  -0.000040   0.000004  -0.000001
     4  H   -0.001550   0.004226  -0.000070  -0.000041   0.000004   0.000009
     5  C    0.308418  -0.055496  -0.036291  -0.035837  -0.004227  -0.003673
     6  H   -0.032234  -0.000832   0.003075  -0.001712   0.000096   0.002598
     7  C    5.152281   0.402465   0.396426   0.314138  -0.033155  -0.041283
     8  H    0.402465   0.526829  -0.024347  -0.037944   0.002989   0.000056
     9  H    0.396426  -0.024347   0.445030  -0.026836  -0.002250   0.002757
    10  C    0.314138  -0.037944  -0.026836   5.234212   0.391568   0.391593
    11  H   -0.033155   0.002989  -0.002250   0.391568   0.415707  -0.016261
    12  H   -0.041283   0.000056   0.002757   0.391593  -0.016261   0.482213
    13  C   -0.035318  -0.002798  -0.002666   0.326450  -0.034826  -0.036373
    14  H   -0.003481   0.001400   0.000944  -0.052596   0.002346   0.003983
    15  C    0.003469   0.000064  -0.000053  -0.048628  -0.002337  -0.002312
    16  H   -0.000079  -0.000004   0.000038  -0.000782   0.000002   0.000157
    17  H    0.000064   0.000006  -0.000003  -0.003967   0.000880   0.001254
    18  N   -0.000071   0.000000  -0.000001   0.003333   0.000150  -0.000137
    19  H    0.000000   0.000000   0.000000  -0.000032   0.000005   0.000001
    20  H    0.000001   0.000000   0.000000  -0.000028  -0.000007   0.000001
    21  H   -0.000013  -0.000002   0.000000   0.000486  -0.000022   0.000024
    22  O    0.001502   0.000190   0.000015  -0.043157   0.001989   0.000571
    23  C   -0.001919  -0.000745   0.000097  -0.003248   0.000023  -0.000645
    24  H   -0.000276   0.000449  -0.000006  -0.001407  -0.000005   0.000302
    25  H    0.000066   0.000083  -0.000001  -0.000165   0.000003  -0.000062
    26  H   -0.003293  -0.001322   0.000088   0.005160  -0.000033  -0.000736
    27  C   -0.047111   0.004833  -0.002881  -0.001011   0.001815  -0.000067
    28  O    0.006384   0.000276   0.003350  -0.008046   0.008112   0.000265
    29  N    0.003048  -0.000040   0.000076  -0.000142   0.000117  -0.000012
    30  H    0.000188  -0.000005  -0.000007  -0.000006  -0.000006  -0.000001
    31  C   -0.000083   0.000001  -0.000009   0.000004   0.000000   0.000000
    32  H   -0.000009   0.000000   0.000000   0.000001   0.000001   0.000000
    33  H    0.000013   0.000000   0.000000   0.000000  -0.000001   0.000000
    34  H    0.000001   0.000000   0.000000   0.000000   0.000000   0.000000
              13         14         15         16         17         18
     1  N   -0.000029  -0.000002   0.000000   0.000000   0.000000   0.000000
     2  H    0.000001   0.000000   0.000000   0.000000   0.000000   0.000000
     3  H    0.000001   0.000000   0.000000   0.000000   0.000000   0.000000
     4  H   -0.000009   0.000000   0.000000   0.000000   0.000000   0.000000
     5  C    0.003711   0.000100  -0.000095   0.000000  -0.000001   0.000000
     6  H   -0.000090  -0.000003   0.000000   0.000000  -0.000001   0.000000
     7  C   -0.035318  -0.003481   0.003469  -0.000079   0.000064  -0.000071
     8  H   -0.002798   0.001400   0.000064  -0.000004   0.000006   0.000000
     9  H   -0.002666   0.000944  -0.000053   0.000038  -0.000003  -0.000001
    10  C    0.326450  -0.052596  -0.048628  -0.000782  -0.003967   0.003333
    11  H   -0.034826   0.002346  -0.002337   0.000002   0.000880   0.000150
    12  H   -0.036373   0.003983  -0.002312   0.000157   0.001254  -0.000137
    13  C    4.822826   0.402198   0.356596  -0.030685  -0.033243  -0.053038
    14  H    0.402198   0.529747  -0.042002   0.000613   0.003513  -0.002869
    15  C    0.356596  -0.042002   5.129125   0.394802   0.399216   0.153821
    16  H   -0.030685   0.000613   0.394802   0.407797  -0.013744  -0.030980
    17  H   -0.033243   0.003513   0.399216  -0.013744   0.411642  -0.037088
    18  N   -0.053038  -0.002869   0.153821  -0.030980  -0.037088   6.947297
    19  H   -0.000998   0.001626  -0.015202  -0.001590   0.002339   0.305107
    20  H    0.003173  -0.000160  -0.017293  -0.001066  -0.002408   0.310202
    21  H   -0.009361   0.000789  -0.020830   0.002315  -0.000216   0.286343
    22  O    0.192546  -0.042797  -0.068462   0.002374   0.001551  -0.018865
    23  C   -0.040411  -0.002559   0.004678  -0.000077  -0.000126   0.000319
    24  H   -0.004875   0.005969   0.000059   0.000011   0.000015  -0.000076
    25  H    0.003654  -0.000131  -0.000077   0.000001   0.000001   0.000054
    26  H   -0.004996  -0.000753  -0.000419   0.000000  -0.000017  -0.000008
    27  C    0.000030  -0.000007   0.000000  -0.000001   0.000000   0.000000
    28  O    0.000300   0.000002  -0.000032  -0.000003   0.000001   0.000000
    29  N    0.000001   0.000000   0.000000   0.000000   0.000000   0.000000
    30  H    0.000000   0.000000   0.000000   0.000000   0.000000   0.000000
    31  C    0.000000   0.000000   0.000000   0.000000   0.000000   0.000000
    32  H    0.000000   0.000000   0.000000   0.000000   0.000000   0.000000
    33  H    0.000000   0.000000   0.000000   0.000000   0.000000   0.000000
    34  H    0.000000   0.000000   0.000000   0.000000   0.000000   0.000000
              19         20         21         22         23         24
     1  N    0.000000   0.000000   0.000000   0.000000  -0.000006   0.000001
     2  H    0.000000   0.000000   0.000000   0.000000   0.000000   0.000000
     3  H    0.000000   0.000000   0.000000   0.000000   0.000000   0.000000
     4  H    0.000000   0.000000   0.000000   0.000000   0.000000  -0.000002
     5  C    0.000000   0.000000   0.000000  -0.000100   0.000080   0.000015
     6  H    0.000000   0.000000   0.000000  -0.000012   0.000026  -0.000004
     7  C    0.000000   0.000001  -0.000013   0.001502  -0.001919  -0.000276
     8  H    0.000000   0.000000  -0.000002   0.000190  -0.000745   0.000449
     9  H    0.000000   0.000000   0.000000   0.000015   0.000097  -0.000006
    10  C   -0.000032  -0.000028   0.000486  -0.043157  -0.003248  -0.001407
    11  H    0.000005  -0.000007  -0.000022   0.001989   0.000023  -0.000005
    12  H    0.000001   0.000001   0.000024   0.000571  -0.000645   0.000302
    13  C   -0.000998   0.003173  -0.009361   0.192546  -0.040411  -0.004875
    14  H    0.001626  -0.000160   0.000789  -0.042797  -0.002559   0.005969
    15  C   -0.015202  -0.017293  -0.020830  -0.068462   0.004678   0.000059
    16  H   -0.001590  -0.001066   0.002315   0.002374  -0.000077   0.000011
    17  H    0.002339  -0.002408  -0.000216   0.001551  -0.000126   0.000015
    18  N    0.305107   0.310202   0.286343  -0.018865   0.000319  -0.000076
    19  H    0.261203  -0.009150  -0.007039   0.000357  -0.000036   0.000011
    20  H   -0.009150   0.246013  -0.007675   0.000240   0.000004  -0.000001
    21  H   -0.007039  -0.007675   0.235296   0.028616  -0.001134   0.000110
    22  O    0.000357   0.000240   0.028616   8.539067   0.178746  -0.036919
    23  C   -0.000036   0.000004  -0.001134   0.178746   4.871064   0.392051
    24  H    0.000011  -0.000001   0.000110  -0.036919   0.392051   0.534472
    25  H   -0.000001  -0.000001  -0.000249  -0.029342   0.404577  -0.023243
    26  H    0.000001   0.000001   0.000110  -0.037776   0.390320  -0.042709
    27  C    0.000000   0.000000   0.000000   0.000000  -0.000001   0.000000
    28  O    0.000000   0.000000   0.000000   0.000000   0.000000   0.000000
    29  N    0.000000   0.000000   0.000000   0.000000   0.000000   0.000000
    30  H    0.000000   0.000000   0.000000   0.000000   0.000000   0.000000
    31  C    0.000000   0.000000   0.000000   0.000000   0.000000   0.000000
    32  H    0.000000   0.000000   0.000000   0.000000   0.000000   0.000000
    33  H    0.000000   0.000000   0.000000   0.000000   0.000000   0.000000
    34  H    0.000000   0.000000   0.000000   0.000000   0.000000   0.000000
              25         26         27         28         29         30
     1  N    0.000000  -0.000018  -0.039155   0.000922  -0.000413  -0.000835
     2  H    0.000000   0.000000  -0.002002  -0.000005   0.001610   0.004144
     3  H    0.000000   0.000000  -0.000528  -0.000014   0.004799  -0.000513
     4  H    0.000000   0.000013   0.002057  -0.000045   0.000081   0.000082
     5  C   -0.000003   0.000403   0.325392  -0.077711  -0.138412   0.001798
     6  H    0.000000   0.000177  -0.026980   0.000122   0.000263  -0.000092
     7  C    0.000066  -0.003293  -0.047111   0.006384   0.003048   0.000188
     8  H    0.000083  -0.001322   0.004833   0.000276  -0.000040  -0.000005
     9  H   -0.000001   0.000088  -0.002881   0.003350   0.000076  -0.000007
    10  C   -0.000165   0.005160  -0.001011  -0.008046  -0.000142  -0.000006
    11  H    0.000003  -0.000033   0.001815   0.008112   0.000117  -0.000006
    12  H   -0.000062  -0.000736  -0.000067   0.000265  -0.000012  -0.000001
    13  C    0.003654  -0.004996   0.000030   0.000300   0.000001   0.000000
    14  H   -0.000131  -0.000753  -0.000007   0.000002   0.000000   0.000000
    15  C   -0.000077  -0.000419   0.000000  -0.000032   0.000000   0.000000
    16  H    0.000001   0.000000  -0.000001  -0.000003   0.000000   0.000000
    17  H    0.000001  -0.000017   0.000000   0.000001   0.000000   0.000000
    18  N    0.000054  -0.000008   0.000000   0.000000   0.000000   0.000000
    19  H   -0.000001   0.000001   0.000000   0.000000   0.000000   0.000000
    20  H   -0.000001   0.000001   0.000000   0.000000   0.000000   0.000000
    21  H   -0.000249   0.000110   0.000000   0.000000   0.000000   0.000000
    22  O   -0.029342  -0.037776   0.000000   0.000000   0.000000   0.000000
    23  C    0.404577   0.390320  -0.000001   0.000000   0.000000   0.000000
    24  H   -0.023243  -0.042709   0.000000   0.000000   0.000000   0.000000
    25  H    0.429250  -0.025339   0.000000   0.000000   0.000000   0.000000
    26  H   -0.025339   0.565119   0.000001   0.000000   0.000000   0.000000
    27  C    0.000000   0.000001   4.135157   0.611062   0.307187  -0.034625
    28  O    0.000000   0.000000   0.611062   8.113645  -0.101015   0.002532
    29  N    0.000000   0.000000   0.307187  -0.101015   7.361098   0.327590
    30  H    0.000000   0.000000  -0.034625   0.002532   0.327590   0.341095
    31  C    0.000000   0.000000  -0.029530   0.005816   0.143845  -0.016414
    32  H    0.000000   0.000000  -0.003144   0.001063  -0.042422   0.000873
    33  H    0.000000   0.000000  -0.004675   0.001982  -0.035510   0.002623
    34  H    0.000000   0.000000   0.004553   0.000282  -0.032812  -0.004708
              31         32         33         34
     1  N   -0.000219   0.000008  -0.000014  -0.000010
     2  H   -0.000035  -0.000001   0.000005  -0.000002
     3  H   -0.000125   0.000007  -0.000027  -0.000004
     4  H    0.000004   0.000000   0.000000   0.000000
     5  C    0.003580  -0.000311   0.000248   0.000002
     6  H   -0.000108   0.000028  -0.000008  -0.000002
     7  C   -0.000083  -0.000009   0.000013   0.000001
     8  H    0.000001   0.000000   0.000000   0.000000
     9  H   -0.000009   0.000000   0.000000   0.000000
    10  C    0.000004   0.000001   0.000000   0.000000
    11  H    0.000000   0.000001  -0.000001   0.000000
    12  H    0.000000   0.000000   0.000000   0.000000
    13  C    0.000000   0.000000   0.000000   0.000000
    14  H    0.000000   0.000000   0.000000   0.000000
    15  C    0.000000   0.000000   0.000000   0.000000
    16  H    0.000000   0.000000   0.000000   0.000000
    17  H    0.000000   0.000000   0.000000   0.000000
    18  N    0.000000   0.000000   0.000000   0.000000
    19  H    0.000000   0.000000   0.000000   0.000000
    20  H    0.000000   0.000000   0.000000   0.000000
    21  H    0.000000   0.000000   0.000000   0.000000
    22  O    0.000000   0.000000   0.000000   0.000000
    23  C    0.000000   0.000000   0.000000   0.000000
    24  H    0.000000   0.000000   0.000000   0.000000
    25  H    0.000000   0.000000   0.000000   0.000000
    26  H    0.000000   0.000000   0.000000   0.000000
    27  C   -0.029530  -0.003144  -0.004675   0.004553
    28  O    0.005816   0.001063   0.001982   0.000282
    29  N    0.143845  -0.042422  -0.035510  -0.032812
    30  H   -0.016414   0.000873   0.002623  -0.004708
    31  C    4.990941   0.406614   0.401963   0.395937
    32  H    0.406614   0.464857  -0.026406  -0.024754
    33  H    0.401963  -0.026406   0.444704  -0.021501
    34  H    0.395937  -0.024754  -0.021501   0.466104
 Mulliken charges:
               1
     1  N   -0.892033
     2  H    0.477773
     3  H    0.488758
     4  H    0.484313
     5  C   -0.156942
     6  H    0.281164
     7  C   -0.342279
     8  H    0.183024
     9  H    0.242530
    10  C   -0.403651
    11  H    0.267335
    12  H    0.215730
    13  C    0.178229
    14  H    0.194129
    15  C   -0.224089
    16  H    0.270899
    17  H    0.270331
    18  N   -0.863493
    19  H    0.463397
    20  H    0.478154
    21  H    0.492452
    22  O   -0.670332
    23  C   -0.191079
    24  H    0.176062
    25  H    0.240926
    26  H    0.156024
    27  C    0.799631
    28  O   -0.569243
    29  N   -0.798937
    30  H    0.376288
    31  C   -0.302182
    32  H    0.223596
    33  H    0.236604
    34  H    0.216914
 Sum of Mulliken charges =   2.00000
 Mulliken charges with hydrogens summed into heavy atoms:
               1
     1  N    0.558810
     5  C    0.124221
     7  C    0.083275
    10  C    0.079414
    13  C    0.372358
    15  C    0.317141
    18  N    0.570510
    22  O   -0.670332
    23  C    0.381933
    27  C    0.799631
    28  O   -0.569243
    29  N   -0.422649
    31  C    0.374931
 Electronic spatial extent (au):  <R**2>=           4037.8058
 Charge=              2.0000 electrons
 Dipole moment (field-independent basis, Debye):
    X=              4.5109    Y=              5.0459    Z=              1.4280  Tot=              6.9172
 Quadrupole moment (field-independent basis, Debye-Ang):
   XX=             49.8464   YY=            -39.8924   ZZ=            -70.8305
   XY=            -42.7617   XZ=              6.1277   YZ=              2.4012
 Traceless Quadrupole moment (field-independent basis, Debye-Ang):
   XX=             70.1386   YY=            -19.6003   ZZ=            -50.5383
   XY=            -42.7617   XZ=              6.1277   YZ=              2.4012
 Octapole moment (field-independent basis, Debye-Ang**2):
  XXX=            165.0789  YYY=             44.7357  ZZZ=              8.0984  XYY=             18.1963
  XXY=            -72.5014  XXZ=             11.1334  XZZ=              4.8576  YZZ=              2.5493
  YYZ=              3.6300  XYZ=            -14.5030
 Hexadecapole moment (field-independent basis, Debye-Ang**3):
 XXXX=          -1412.4650 YYYY=           -654.9828 ZZZZ=           -154.7170 XXXY=           -574.3868
 XXXZ=            131.1630 YYYX=           -207.1332 YYYZ=             12.9441 ZZZX=              0.5879
 ZZZY=              3.8860 XXYY=           -347.8470 XXZZ=           -606.0816 YYZZ=           -151.2699
 XXYZ=            -12.9988 YYXZ=            -11.9208 ZZXY=            -41.7194
 N-N= 8.880569829671D+02 E-N=-3.215862000707D+03  KE= 6.265789590535D+02
 Calling FoFJK, ICntrl=      2127 FMM=F ISym2X=0 I1Cent= 0 IOpClX= 0 NMat=1 NMatS=1 NMatT=0.
 ***** Axes restored to original set *****
 -------------------------------------------------------------------
 Center     Atomic                   Forces (Hartrees/Bohr)
 Number     Number              X              Y              Z
 -------------------------------------------------------------------
      1        7           0.008218763    0.011248350    0.001358477
      2        1           0.002764395    0.010411616   -0.048123493
      3        1          -0.040281969    0.006743299    0.017961616
      4        1           0.025718890   -0.033136539    0.019888275
      5        6          -0.009322970   -0.008577823   -0.001878645
      6        1           0.001398677    0.005321225    0.003094828
      7        6           0.009056341    0.009313175    0.000785322
      8        1          -0.001912482    0.003000335   -0.003406328
      9        1          -0.000674875    0.000915103    0.000908585
     10        6          -0.003009930   -0.002818025    0.004602198
     11        1           0.000198018    0.001198798    0.000206184
     12        1          -0.000116306   -0.000630881   -0.000006560
     13        6          -0.001628293    0.002460683   -0.004813400
     14        1          -0.000035228    0.000012641    0.000403429
     15        6          -0.001970813   -0.001559490   -0.002991036
     16        1           0.000061496   -0.000274950    0.000090839
     17        1           0.000067197   -0.000416348    0.000040308
     18        7           0.003004775    0.002050698    0.004286306
     19        1          -0.000221717   -0.000367222   -0.001613542
     20        1          -0.000724757   -0.001294663   -0.000471073
     21        1          -0.001667752   -0.001158291   -0.002032668
     22        8           0.004886818    0.002201043    0.005950739
     23        6          -0.001963929   -0.001416882   -0.006145494
     24        1          -0.000180675    0.000278500   -0.000257543
     25        1           0.000855537    0.000229156    0.000957291
     26        1          -0.001374159   -0.000806185    0.001572952
     27        6           0.014493341   -0.022209974   -0.000409463
     28        8          -0.006207507    0.019712136    0.007342396
     29        7          -0.007425659    0.013213962   -0.006945304
     30        1           0.002826468   -0.008370724    0.006285137
     31        6           0.006666950   -0.008721551    0.004726424
     32        1          -0.000520267    0.002006878   -0.000497753
     33        1          -0.000431700    0.001195645    0.000090965
     34        1          -0.000546678    0.000246306   -0.000959967
 -------------------------------------------------------------------
 Cartesian Forces:  Max     0.048123493 RMS     0.009471839
 -----------------------------------------------------------------------------------------------
                       Internal Coordinate Forces (Hartree/Bohr or radian)
  Cent   Atom   N1       Length/X         N2         Alpha/Y        N3         Beta/Z          J
 -----------------------------------------------------------------------------------------------
      1  N 
      2  H        1  -0.048123(     1)
      3  H        1  -0.043965(     2)      2  -0.007091(    34)
      4  H        1  -0.045809(     3)      2  -0.009905(    35)      3   0.010876(    66)     0
      5  C        1  -0.008524(     4)      2   0.005262(    36)      3   0.001979(    67)     0
      6  H        5   0.000098(     5)      1   0.000152(    37)      2  -0.002073(    68)     0
      7  C        5   0.001985(     6)      1  -0.026014(    38)      6   0.004978(    69)     0
      8  H        7   0.003842(     7)      5   0.006296(    39)      6  -0.000151(    70)     0
      9  H        7  -0.001222(     8)      5  -0.000373(    40)      6  -0.001487(    71)     0
     10  C        7   0.004340(     9)      5  -0.004342(    41)      6  -0.012875(    72)     0
     11  H       10  -0.001040(    10)      7  -0.001348(    42)      5   0.000099(    73)     0
     12  H       10   0.000059(    11)      7   0.001019(    43)      5  -0.000772(    74)     0
     13  C       10   0.004801(    12)      7   0.004017(    44)      5   0.007598(    75)     0
     14  H       13  -0.000267(    13)     10  -0.000539(    45)      7  -0.000303(    76)     0
     15  C       13   0.004138(    14)     10  -0.003417(    46)      7  -0.003048(    77)     0
     16  H       15   0.000175(    15)     13   0.000250(    47)     10   0.000385(    78)     0
     17  H       15   0.000201(    16)     13   0.000547(    48)     10  -0.000495(    79)     0
     18  N       15  -0.000522(    17)     13   0.007204(    49)     10   0.001564(    80)     0
     19  H       18   0.000989(    18)     15   0.001951(    50)     13   0.001546(    81)     0
     20  H       18   0.001554(    19)     15  -0.000167(    51)     13  -0.000068(    82)     0
     21  H       18  -0.000347(    20)     15   0.004869(    52)     13  -0.002381(    83)     0
     22  O       13  -0.001502(    21)     10   0.000064(    53)      7   0.000434(    84)     0
     23  C       22  -0.003091(    22)     13   0.007019(    54)     10   0.003286(    85)     0
     24  H       23   0.000158(    23)     22   0.000235(    55)     13   0.000714(    86)     0
     25  H       23  -0.000799(    24)     22   0.001744(    56)     13   0.001127(    87)     0
     26  H       23   0.001174(    25)     22  -0.001636(    57)     13  -0.003289(    88)     0
     27  C        5   0.008702(    26)      7  -0.009013(    58)     10   0.009259(    89)     0
     28  O       27  -0.019547(    27)      5  -0.022631(    59)      7   0.000466(    90)     0
     29  N       27   0.002597(    28)      5   0.013632(    60)      7   0.008017(    91)     0
     30  H       29  -0.002300(    29)     27   0.017383(    61)      5   0.008528(    92)     0
     31  C       29   0.007858(    30)     27   0.003957(    62)      5   0.000496(    93)     0
     32  H       31  -0.001316(    31)     29  -0.003415(    63)     27  -0.000337(    94)     0
     33  H       31  -0.000688(    32)     29  -0.002034(    64)     27   0.000764(    95)     0
     34  H       31  -0.001003(    33)     29  -0.000908(    65)     27  -0.000538(    96)     0
 -----------------------------------------------------------------------------------------------
 Internal  Forces:  Max     0.048123493 RMS     0.010149660

 GradGradGradGradGradGradGradGradGradGradGradGradGradGradGradGradGradGrad
 Berny optimization.
 Search for a local minimum.
 Step number   1 out of a maximum of  106
 All quantities printed in internal units (Hartrees-Bohrs-Radians)
 Second derivative matrix not updated -- first step.
 ITU=  0
     Eigenvalues ---    0.00637   0.00756   0.00860   0.00921   0.00973
     Eigenvalues ---    0.01185   0.01485   0.01629   0.01866   0.03245
     Eigenvalues ---    0.04352   0.07563   0.09448   0.12786   0.13320
     Eigenvalues ---    0.13537   0.13561   0.13765   0.13942   0.14111
     Eigenvalues ---    0.14345   0.14393   0.14914   0.16418   0.17338
     Eigenvalues ---    0.17656   0.17790   0.19128   0.19626   0.19914
     Eigenvalues ---    0.20061   0.20253   0.22167   0.23498   0.25000
     Eigenvalues ---    0.25001   0.28519   0.28893   0.29016   0.29176
     Eigenvalues ---    0.29214   0.29815   0.31577   0.32412   0.33003
     Eigenvalues ---    0.33198   0.33579   0.34733   0.35242   0.35255
     Eigenvalues ---    0.35384   0.35385   0.35532   0.35564   0.35674
     Eigenvalues ---    0.35870   0.35894   0.35907   0.36007   0.36013
     Eigenvalues ---    0.36079   0.36092   0.36105   0.36629   0.37230
     Eigenvalues ---    0.37230   0.37230   0.37426   0.38012   0.38696
     Eigenvalues ---    0.38722   0.39011   0.39046   0.39544   0.40036
     Eigenvalues ---    0.40068   0.40116   0.40179   0.41519   0.41810
     Eigenvalues ---    0.42677   0.42921   0.42954   0.43126   0.43927
     Eigenvalues ---    0.45100   0.45194   0.45994   0.46074   0.48748
     Eigenvalues ---    0.52455   0.57006   0.57013   0.74991   1.00190
     Eigenvalues ---    1.02615
 RFO step:  Lambda=-2.94227380D-02 EMin= 6.36987405D-03
 Linear search not attempted -- first point.
 Maximum step size (   0.300) exceeded in Quadratic search.
    -- Step size scaled by   0.810
 Variable       Old X    -DE/DX   Delta X   Delta X   Delta X     New X
                                 (Linear)    (Quad)   (Total)
    B1        2.02201  -0.04812   0.00000  -0.09704  -0.09704   1.92497
    B2        2.02201  -0.04397   0.00000  -0.08865  -0.08865   1.93335
    B3        2.02201  -0.04581   0.00000  -0.09237  -0.09237   1.92964
    B4        2.91018  -0.00852   0.00000  -0.02195  -0.02195   2.88823
    B5        2.04820   0.00010   0.00000   0.00021   0.00021   2.04841
    B6        2.90227   0.00198   0.00000   0.00505   0.00505   2.90733
    B7        2.04286   0.00384   0.00000   0.00802   0.00802   2.05087
    B8        2.05056  -0.00122   0.00000  -0.00258  -0.00258   2.04798
    B9        2.89636   0.00434   0.00000   0.01094   0.01094   2.90731
   B10        2.04594  -0.00104   0.00000  -0.00218  -0.00218   2.04376
   B11        2.05283   0.00006   0.00000   0.00013   0.00013   2.05296
   B12        2.89970   0.00480   0.00000   0.01217   0.01217   2.91187
   B13        2.06111  -0.00027   0.00000  -0.00057  -0.00057   2.06054
   B14        2.88334   0.00414   0.00000   0.01023   0.01023   2.89357
   B15        2.03938   0.00018   0.00000   0.00036   0.00036   2.03974
   B16        2.04070   0.00020   0.00000   0.00042   0.00042   2.04112
   B17        2.84925  -0.00052   0.00000  -0.00122  -0.00122   2.84802
   B18        1.90838   0.00099   0.00000   0.00164   0.00164   1.91002
   B19        1.90748   0.00155   0.00000   0.00257   0.00257   1.91004
   B20        1.91751  -0.00035   0.00000  -0.00058  -0.00058   1.91693
   B21        2.65159  -0.00150   0.00000  -0.00253  -0.00253   2.64906
   B22        2.67514  -0.00309   0.00000  -0.00544  -0.00544   2.66971
   B23        2.05054   0.00016   0.00000   0.00033   0.00033   2.05088
   B24        2.03918  -0.00080   0.00000  -0.00166  -0.00166   2.03752
   B25        2.04227   0.00117   0.00000   0.00245   0.00245   2.04472
   B26        2.89559   0.00870   0.00000   0.02192   0.02192   2.91751
   B27        2.27609  -0.01955   0.00000  -0.01500  -0.01500   2.26109
   B28        2.53386   0.00260   0.00000   0.00351   0.00351   2.53736
   B29        1.87850  -0.00230   0.00000  -0.00360  -0.00360   1.87490
   B30        2.74347   0.00786   0.00000   0.01554   0.01554   2.75902
   B31        2.04769  -0.00132   0.00000  -0.00277  -0.00277   2.04492
   B32        2.04061  -0.00069   0.00000  -0.00143  -0.00143   2.03918
   B33        2.04248  -0.00100   0.00000  -0.00209  -0.00209   2.04039
    A1        1.91063  -0.00709   0.00000  -0.02767  -0.02767   1.88296
    A2        1.91063  -0.00991   0.00000  -0.04350  -0.04350   1.86714
    A3        1.91063   0.00526   0.00000   0.04421   0.04421   1.95485
    A4        1.84907   0.00015   0.00000   0.00468   0.00468   1.85375
    A5        1.96872  -0.02601   0.00000  -0.06533  -0.06533   1.90339
    A6        1.86655   0.00630   0.00000   0.02804   0.02804   1.89458
    A7        1.91403  -0.00037   0.00000  -0.00767  -0.00767   1.90636
    A8        1.96818  -0.00434   0.00000  -0.01312  -0.01312   1.95506
    A9        1.88715  -0.00135   0.00000  -0.01449  -0.01449   1.87267
   A10        1.93184   0.00102   0.00000   0.00895   0.00895   1.94079
   A11        1.99203   0.00402   0.00000   0.01077   0.01077   2.00281
   A12        1.92435  -0.00054   0.00000   0.00018   0.00018   1.92454
   A13        1.90798  -0.00342   0.00000  -0.00961  -0.00961   1.89837
   A14        1.97188   0.00025   0.00000  -0.00455  -0.00455   1.96734
   A15        1.93057   0.00055   0.00000  -0.00050  -0.00050   1.93006
   A16        1.89263   0.00720   0.00000   0.01833   0.01833   1.91096
   A17        1.95361   0.00195   0.00000   0.00545   0.00545   1.95906
   A18        1.96871  -0.00017   0.00000  -0.00789  -0.00789   1.96082
   A19        1.86882   0.00487   0.00000   0.01732   0.01732   1.88614
   A20        2.00858   0.00006   0.00000   0.00374   0.00374   2.01232
   A21        2.06071   0.00702   0.00000   0.02035   0.02035   2.08106
   A22        1.92956   0.00024   0.00000   0.00419   0.00419   1.93375
   A23        1.85764   0.00174   0.00000   0.00384   0.00384   1.86147
   A24        1.94419  -0.00164   0.00000  -0.00695  -0.00695   1.93724
   A25        1.95290  -0.00901   0.00000  -0.01239  -0.01239   1.94051
   A26        2.10729  -0.02263   0.00000  -0.05715  -0.05715   2.05014
   A27        2.02588   0.01363   0.00000   0.04788   0.04788   2.07375
   A28        2.06674   0.01738   0.00000   0.04379   0.04379   2.11053
   A29        2.12280   0.00396   0.00000  -0.00939  -0.00939   2.11341
   A30        1.94738  -0.00342   0.00000  -0.00913  -0.00913   1.93825
   A31        1.91667  -0.00203   0.00000  -0.00453  -0.00453   1.91214
   A32        1.89491  -0.00091   0.00000  -0.00057  -0.00057   1.89434
    D1       -2.09440   0.01088   0.00000   0.07429   0.07429  -2.02011
    D2        2.09439   0.00198   0.00000   0.04453   0.04453   2.13893
    D3        0.74319  -0.00207   0.00000  -0.03132  -0.03132   0.71187
    D4        2.06429   0.00498   0.00000   0.01661   0.01661   2.08090
    D5        1.38703  -0.00015   0.00000  -0.04131  -0.04131   1.34572
    D6       -2.86304  -0.00149   0.00000  -0.03595  -0.03595  -2.89900
    D7       -0.72596  -0.01288   0.00000  -0.05839  -0.05839  -0.78436
    D8       -1.20396   0.00010   0.00000   0.04650   0.04650  -1.15746
    D9        0.83621  -0.00077   0.00000   0.03942   0.03942   0.87563
   D10        2.94434   0.00760   0.00000   0.06999   0.06999   3.01434
   D11        0.48029  -0.00030   0.00000  -0.01915  -0.01915   0.46113
   D12        2.57516  -0.00305   0.00000  -0.02803  -0.02803   2.54712
   D13       -1.23395   0.00038   0.00000   0.01395   0.01395  -1.22000
   D14        0.92689  -0.00050   0.00000   0.00376   0.00376   0.93065
   D15        2.95298   0.00156   0.00000   0.01308   0.01308   2.96606
   D16        1.24684   0.00155   0.00000   0.00202   0.00202   1.24886
   D17       -2.90983  -0.00007   0.00000  -0.00927  -0.00927  -2.91910
   D18       -0.80560  -0.00238   0.00000  -0.01376  -0.01376  -0.81936
   D19       -1.68667   0.00043   0.00000  -0.02591  -0.02591  -1.71258
   D20        1.11703   0.00329   0.00000   0.03616   0.03616   1.15319
   D21        0.95806   0.00071   0.00000  -0.00785  -0.00785   0.95021
   D22        3.02953   0.00113   0.00000  -0.00359  -0.00359   3.02594
   D23       -1.17611  -0.00329   0.00000  -0.01508  -0.01508  -1.19119
   D24        1.31827   0.00926   0.00000   0.00951   0.00951   1.32778
   D25       -0.29709   0.00047   0.00000   0.07005   0.07005  -0.22704
   D26        2.86373   0.00802   0.00000   0.07442   0.07442   2.93815
   D27        0.10444   0.00853   0.00000   0.05689   0.05689   0.16133
   D28        3.03602   0.00050   0.00000   0.03211   0.03211   3.06813
   D29       -1.23112  -0.00034   0.00000   0.00264   0.00264  -1.22848
   D30        0.87192   0.00076   0.00000   0.00268   0.00268   0.87461
   D31        2.95252  -0.00054   0.00000   0.00218   0.00218   2.95470
         Item               Value     Threshold  Converged?
 Maximum Force            0.048123     0.000450     NO 
 RMS     Force            0.010150     0.000300     NO 
 Maximum Displacement     0.097037     0.001800     NO 
 RMS     Displacement     0.030619     0.001200     NO 
 Predicted change in Energy=-1.550457D-02
 GradGradGradGradGradGradGradGradGradGradGradGradGradGradGradGradGradGrad

 ---------------------------------------------------------------------------------------------------
                            Z-MATRIX (ANGSTROMS AND DEGREES)
   CD    Cent   Atom    N1       Length/X        N2       Alpha/Y        N3        Beta/Z          J
 ---------------------------------------------------------------------------------------------------
      1      1  N 
      2      2  H        1   1.018650(     1)
      3      3  H        1   1.023087(     2)      2  107.886(    34)
      4      4  H        1   1.021119(     3)      2  106.979(    35)      3 -115.744(    66)      0
      5      5  C        1   1.528386(     4)      2  112.004(    36)      3  122.552(    67)      0
      6      6  H        5   1.083972(     5)      1  106.212(    37)      2   40.787(    68)      0
      7      7  C        5   1.538490(     6)      1  109.056(    38)      6  119.227(    69)      0
      8      8  H        7   1.085275(     7)      5  108.552(    39)      6   77.104(    70)      0
      9      9  H        7   1.083743(     8)      5  109.226(    40)      6 -166.100(    71)      0
     10     10  C        7   1.538481(     9)      5  112.016(    41)      6  -44.940(    72)      0
[...]
    15  C    0.000000   0.000000   0.000000   0.000000  -0.000093   0.000001
    16  H    0.000000   0.000000   0.000000   0.000000   0.000001   0.000000
    17  H    0.000000   0.000000   0.000000   0.000000  -0.000002   0.000000
    18  N    0.000000   0.000000   0.000000   0.000000   0.000000   0.000000
    19  H    0.000000   0.000000   0.000000   0.000000   0.000000   0.000000
    20  H    0.000000   0.000000   0.000000   0.000000   0.000000   0.000000
    21  H    0.000000   0.000000   0.000000   0.000000   0.000000   0.000000
    22  O    0.000000   0.000000   0.000000   0.000000  -0.000076  -0.000001
    23  C    0.000000   0.000000   0.000000  -0.000002   0.000025   0.000013
    24  H    0.000000   0.000000   0.000000   0.000000   0.000000  -0.000001
    25  H    0.000000   0.000000   0.000000   0.000000  -0.000001   0.000000
    26  H   -0.000005   0.000000   0.000000  -0.000004   0.000178   0.000040
    27  C   -0.063809  -0.001642  -0.006041   0.004201   0.334295  -0.034549
    28  O   -0.014604   0.000836   0.032419   0.000123  -0.096896   0.002382
    29  N    0.000434   0.000287   0.001298  -0.000084  -0.106540   0.006434
    30  H    0.000009  -0.000008  -0.000040  -0.000002   0.000870   0.001229
    31  C   -0.000069  -0.000010  -0.000018   0.000001   0.003530  -0.000061
    32  H   -0.000002   0.000000  -0.000001   0.000000  -0.000159   0.000001
    33  H    0.000013  -0.000002  -0.000001   0.000000   0.000220  -0.000007
    34  H    0.000002   0.000000   0.000000   0.000000  -0.000047  -0.000009
               7          8          9         10         11         12
     1  N   -0.067189  -0.001812  -0.001665   0.002734  -0.000021   0.000003
     2  H    0.002991  -0.000137  -0.000004  -0.000057  -0.000001   0.000001
     3  H   -0.000140  -0.000219   0.002003  -0.000022   0.000012  -0.000002
     4  H   -0.000715   0.002593  -0.000358   0.000035   0.000006   0.000003
     5  C    0.326023  -0.042388  -0.040055  -0.043661  -0.005401  -0.002101
     6  H   -0.025870  -0.002896   0.003111  -0.000828   0.000160   0.000976
     7  C    5.165087   0.396419   0.396868   0.321981  -0.039841  -0.035539
     8  H    0.396419   0.488624  -0.024395  -0.031200   0.003296  -0.001302
     9  H    0.396868  -0.024395   0.463412  -0.030880  -0.001784   0.002864
    10  C    0.321981  -0.031200  -0.030880   5.203306   0.394655   0.391124
    11  H   -0.039841   0.003296  -0.001784   0.394655   0.483351  -0.019796
    12  H   -0.035539  -0.001302   0.002864   0.391124  -0.019796   0.468874
    13  C   -0.034244  -0.002711  -0.003285   0.339630  -0.039206  -0.033923
    14  H   -0.002813   0.001038   0.001135  -0.053005   0.002785   0.003662
    15  C    0.003261   0.000026  -0.000022  -0.053437  -0.002361  -0.002089
    16  H   -0.000089  -0.000004   0.000040  -0.000497  -0.000233   0.000172
    17  H    0.000072   0.000006  -0.000003  -0.004026   0.001087   0.001181
    18  N   -0.000065   0.000000  -0.000002   0.003299   0.000139  -0.000125
    19  H    0.000000   0.000000  -0.000001  -0.000026   0.000006   0.000001
    20  H    0.000001   0.000000   0.000000  -0.000027  -0.000008   0.000001
    21  H   -0.000009  -0.000001   0.000000   0.000444  -0.000024   0.000021
    22  O    0.001373   0.000312   0.000043  -0.047692   0.002396   0.001061
    23  C   -0.001400  -0.000333   0.000110  -0.001005  -0.000045  -0.000014
    24  H    0.000005   0.000102  -0.000007  -0.001125   0.000000   0.000191
    25  H    0.000046   0.000072  -0.000001  -0.000201   0.000004  -0.000045
    26  H   -0.002176  -0.000369   0.000056   0.003904  -0.000047  -0.000283
    27  C   -0.048411   0.004074  -0.003729  -0.001457   0.003598  -0.000430
    28  O    0.001051  -0.000029   0.004706  -0.000549  -0.000034  -0.000001
    29  N   -0.002490  -0.000118   0.000369   0.000708   0.001099   0.000241
    30  H   -0.000078  -0.000002  -0.000007   0.000201  -0.000047   0.000206
    31  C   -0.000076   0.000002  -0.000003  -0.000032   0.000019   0.000003
    32  H    0.000042   0.000000   0.000001   0.000000  -0.000002  -0.000001
    33  H   -0.000019   0.000000  -0.000002   0.000003   0.000005   0.000000
    34  H   -0.000003   0.000000   0.000000   0.000001  -0.000002   0.000000
              13         14         15         16         17         18
     1  N   -0.000037  -0.000002   0.000000   0.000000   0.000000   0.000000
     2  H    0.000001   0.000000   0.000000   0.000000   0.000000   0.000000
     3  H    0.000001  -0.000001   0.000000   0.000000   0.000000   0.000000
     4  H   -0.000003   0.000001   0.000000   0.000000   0.000000   0.000000
     5  C    0.003859   0.000012  -0.000093   0.000001  -0.000002   0.000000
     6  H   -0.000069  -0.000005   0.000001   0.000000   0.000000   0.000000
     7  C   -0.034244  -0.002813   0.003261  -0.000089   0.000072  -0.000065
     8  H   -0.002711   0.001038   0.000026  -0.000004   0.000006   0.000000
     9  H   -0.003285   0.001135  -0.000022   0.000040  -0.000003  -0.000002
    10  C    0.339630  -0.053005  -0.053437  -0.000497  -0.004026   0.003299
    11  H   -0.039206   0.002785  -0.002361  -0.000233   0.001087   0.000139
    12  H   -0.033923   0.003662  -0.002089   0.000172   0.001181  -0.000125
    13  C    4.793001   0.401490   0.357546  -0.030340  -0.032761  -0.051461
    14  H    0.401490   0.526614  -0.040821   0.000369   0.003459  -0.002639
    15  C    0.357546  -0.040821   5.134466   0.394198   0.399420   0.154753
    16  H   -0.030340   0.000369   0.394198   0.414822  -0.014964  -0.031343
    17  H   -0.032761   0.003459   0.399420  -0.014964   0.414735  -0.037156
    18  N   -0.051461  -0.002639   0.154753  -0.031343  -0.037156   6.933815
    19  H   -0.001033   0.001544  -0.015051  -0.001600   0.002354   0.304832
    20  H    0.003086  -0.000158  -0.017989  -0.001190  -0.002416   0.309940
    21  H   -0.008156   0.000658  -0.020029   0.002390  -0.000468   0.288960
    22  O    0.202421  -0.041242  -0.071744   0.002433   0.001377  -0.014132
    23  C   -0.039316  -0.003216   0.004560  -0.000074  -0.000124   0.000303
    24  H   -0.005965   0.006744   0.000148   0.000011   0.000013  -0.000087
    25  H    0.003559  -0.000087  -0.000056   0.000001   0.000003   0.000057
    26  H   -0.003574  -0.000687  -0.000417   0.000002  -0.000010  -0.000001
    27  C   -0.000067   0.000000  -0.000001  -0.000002   0.000001   0.000000
    28  O   -0.000011  -0.000002   0.000000   0.000000   0.000000   0.000000
    29  N    0.000107  -0.000001  -0.000007  -0.000001   0.000000   0.000000
    30  H   -0.000002   0.000000   0.000000   0.000000   0.000000   0.000000
    31  C   -0.000002   0.000000   0.000000   0.000000   0.000000   0.000000
    32  H   -0.000002   0.000000   0.000000   0.000000   0.000000   0.000000
    33  H    0.000000   0.000000   0.000000   0.000000   0.000000   0.000000
    34  H    0.000000   0.000000   0.000000   0.000000   0.000000   0.000000
              19         20         21         22         23         24
     1  N    0.000000   0.000000   0.000000   0.000000   0.000000   0.000000
     2  H    0.000000   0.000000   0.000000   0.000000   0.000000   0.000000
     3  H    0.000000   0.000000   0.000000   0.000000   0.000000   0.000000
     4  H    0.000000   0.000000   0.000000   0.000000  -0.000002   0.000000
     5  C    0.000000   0.000000   0.000000  -0.000076   0.000025   0.000000
     6  H    0.000000   0.000000   0.000000  -0.000001   0.000013  -0.000001
     7  C    0.000000   0.000001  -0.000009   0.001373  -0.001400   0.000005
     8  H    0.000000   0.000000  -0.000001   0.000312  -0.000333   0.000102
     9  H   -0.000001   0.000000   0.000000   0.000043   0.000110  -0.000007
    10  C   -0.000026  -0.000027   0.000444  -0.047692  -0.001005  -0.001125
    11  H    0.000006  -0.000008  -0.000024   0.002396  -0.000045   0.000000
    12  H    0.000001   0.000001   0.000021   0.001061  -0.000014   0.000191
    13  C   -0.001033   0.003086  -0.008156   0.202421  -0.039316  -0.005965
    14  H    0.001544  -0.000158   0.000658  -0.041242  -0.003216   0.006744
    15  C   -0.015051  -0.017989  -0.020029  -0.071744   0.004560   0.000148
    16  H   -0.001600  -0.001190   0.002390   0.002433  -0.000074   0.000011
    17  H    0.002354  -0.002416  -0.000468   0.001377  -0.000124   0.000013
    18  N    0.304832   0.309940   0.288960  -0.014132   0.000303  -0.000087
    19  H    0.259517  -0.009296  -0.007255   0.000327  -0.000034   0.000013
    20  H   -0.009296   0.247141  -0.007924   0.000256   0.000002  -0.000002
    21  H   -0.007255  -0.007924   0.236545   0.025132  -0.001063   0.000100
    22  O    0.000327   0.000256   0.025132   8.533481   0.170845  -0.036165
    23  C   -0.000034   0.000002  -0.001063   0.170845   4.884182   0.390778
    24  H    0.000013  -0.000002   0.000100  -0.036165   0.390778   0.529921
    25  H   -0.000001  -0.000001  -0.000270  -0.029411   0.403620  -0.023026
    26  H    0.000001   0.000001   0.000094  -0.037523   0.393236  -0.038838
    27  C    0.000000   0.000000   0.000000   0.000000  -0.000001   0.000000
    28  O    0.000000   0.000000   0.000000   0.000000   0.000000   0.000000
    29  N    0.000000   0.000000   0.000000   0.000000   0.000000   0.000000
    30  H    0.000000   0.000000   0.000000   0.000000   0.000000   0.000000
    31  C    0.000000   0.000000   0.000000   0.000000   0.000000   0.000000
    32  H    0.000000   0.000000   0.000000   0.000000   0.000000   0.000000
    33  H    0.000000   0.000000   0.000000   0.000000   0.000000   0.000000
    34  H    0.000000   0.000000   0.000000   0.000000   0.000000   0.000000
              25         26         27         28         29         30
     1  N    0.000000  -0.000005  -0.063809  -0.014604   0.000434   0.000009
     2  H    0.000000   0.000000  -0.001642   0.000836   0.000287  -0.000008
     3  H    0.000000   0.000000  -0.006041   0.032419   0.001298  -0.000040
     4  H    0.000000  -0.000004   0.004201   0.000123  -0.000084  -0.000002
     5  C   -0.000001   0.000178   0.334295  -0.096896  -0.106540   0.000870
     6  H    0.000000   0.000040  -0.034549   0.002382   0.006434   0.001229
     7  C    0.000046  -0.002176  -0.048411   0.001051  -0.002490  -0.000078
     8  H    0.000072  -0.000369   0.004074  -0.000029  -0.000118  -0.000002
     9  H   -0.000001   0.000056  -0.003729   0.004706   0.000369  -0.000007
    10  C   -0.000201   0.003904  -0.001457  -0.000549   0.000708   0.000201
    11  H    0.000004  -0.000047   0.003598  -0.000034   0.001099  -0.000047
    12  H   -0.000045  -0.000283  -0.000430  -0.000001   0.000241   0.000206
    13  C    0.003559  -0.003574  -0.000067  -0.000011   0.000107  -0.000002
    14  H   -0.000087  -0.000687   0.000000  -0.000002  -0.000001   0.000000
    15  C   -0.000056  -0.000417  -0.000001   0.000000  -0.000007   0.000000
    16  H    0.000001   0.000002  -0.000002   0.000000  -0.000001   0.000000
    17  H    0.000003  -0.000010   0.000001   0.000000   0.000000   0.000000
    18  N    0.000057  -0.000001   0.000000   0.000000   0.000000   0.000000
    19  H   -0.000001   0.000001   0.000000   0.000000   0.000000   0.000000
    20  H   -0.000001   0.000001   0.000000   0.000000   0.000000   0.000000
    21  H   -0.000270   0.000094   0.000000   0.000000   0.000000   0.000000
    22  O   -0.029411  -0.037523   0.000000   0.000000   0.000000   0.000000
    23  C    0.403620   0.393236  -0.000001   0.000000   0.000000   0.000000
    24  H   -0.023026  -0.038838   0.000000   0.000000   0.000000   0.000000
    25  H    0.432522  -0.026073   0.000000   0.000000   0.000000   0.000000
    26  H   -0.026073   0.539582  -0.000002   0.000000   0.000000   0.000000
    27  C    0.000000  -0.000002   4.189219   0.568964   0.316503  -0.024015
    28  O    0.000000   0.000000   0.568964   8.191111  -0.090286   0.002024
    29  N    0.000000   0.000000   0.316503  -0.090286   7.300450   0.325219
    30  H    0.000000   0.000000  -0.024015   0.002024   0.325219   0.299919
    31  C    0.000000   0.000000  -0.029778   0.001796   0.149083  -0.016120
    32  H    0.000000   0.000000  -0.002482   0.000470  -0.041564   0.000827
    33  H    0.000000   0.000000  -0.002262   0.003319  -0.034488   0.002056
    34  H    0.000000   0.000000   0.003696   0.000231  -0.034032  -0.003597
              31         32         33         34
     1  N   -0.000069  -0.000002   0.000013   0.000002
     2  H   -0.000010   0.000000  -0.000002   0.000000
     3  H   -0.000018  -0.000001  -0.000001   0.000000
     4  H    0.000001   0.000000   0.000000   0.000000
     5  C    0.003530  -0.000159   0.000220  -0.000047
     6  H   -0.000061   0.000001  -0.000007  -0.000009
     7  C   -0.000076   0.000042  -0.000019  -0.000003
     8  H    0.000002   0.000000   0.000000   0.000000
     9  H   -0.000003   0.000001  -0.000002   0.000000
    10  C   -0.000032   0.000000   0.000003   0.000001
    11  H    0.000019  -0.000002   0.000005  -0.000002
    12  H    0.000003  -0.000001   0.000000   0.000000
    13  C   -0.000002  -0.000002   0.000000   0.000000
    14  H    0.000000   0.000000   0.000000   0.000000
    15  C    0.000000   0.000000   0.000000   0.000000
    16  H    0.000000   0.000000   0.000000   0.000000
    17  H    0.000000   0.000000   0.000000   0.000000
    18  N    0.000000   0.000000   0.000000   0.000000
    19  H    0.000000   0.000000   0.000000   0.000000
    20  H    0.000000   0.000000   0.000000   0.000000
    21  H    0.000000   0.000000   0.000000   0.000000
    22  O    0.000000   0.000000   0.000000   0.000000
    23  C    0.000000   0.000000   0.000000   0.000000
    24  H    0.000000   0.000000   0.000000   0.000000
    25  H    0.000000   0.000000   0.000000   0.000000
    26  H    0.000000   0.000000   0.000000   0.000000
    27  C   -0.029778  -0.002482  -0.002262   0.003696
    28  O    0.001796   0.000470   0.003319   0.000231
    29  N    0.149083  -0.041564  -0.034488  -0.034032
    30  H   -0.016120   0.000827   0.002056  -0.003597
    31  C    4.999790   0.402811   0.400659   0.397462
    32  H    0.402811   0.481418  -0.024643  -0.026426
    33  H    0.400659  -0.024643   0.426397  -0.019208
    34  H    0.397462  -0.026426  -0.019208   0.457292
 Mulliken charges:
               1
     1  N   -0.864213
     2  H    0.478342
     3  H    0.497427
     4  H    0.468673
     5  C   -0.151240
     6  H    0.266641
     7  C   -0.354051
     8  H    0.211352
     9  H    0.231483
    10  C   -0.392296
    11  H    0.216238
    12  H    0.225063
    13  C    0.181466
    14  H    0.195166
    15  C   -0.224261
    16  H    0.265896
    17  H    0.268223
    18  N   -0.859087
    19  H    0.465701
    20  H    0.478582
    21  H    0.490856
    22  O   -0.663472
    23  C   -0.201047
    24  H    0.177190
    25  H    0.239288
    26  H    0.172915
    27  C    0.794126
    28  O   -0.607020
    29  N   -0.792622
    30  H    0.411357
    31  C   -0.308988
    32  H    0.209711
    33  H    0.247960
    34  H    0.224641
 Sum of Mulliken charges =   2.00000
 Mulliken charges with hydrogens summed into heavy atoms:
               1
     1  N    0.580230
     5  C    0.115401
     7  C    0.088784
    10  C    0.049004
    13  C    0.376632
    15  C    0.309858
    18  N    0.576052
    22  O   -0.663472
    23  C    0.388346
    27  C    0.794126
    28  O   -0.607020
    29  N   -0.381264
    31  C    0.373324
 Electronic spatial extent (au):  <R**2>=           3770.6185
 Charge=              2.0000 electrons
 Dipole moment (field-independent basis, Debye):
    X=              6.3552    Y=              1.6817    Z=              0.0180  Tot=              6.5740
 Quadrupole moment (field-independent basis, Debye-Ang):
   XX=             22.6096   YY=            -28.7103   ZZ=            -70.2629
   XY=            -35.7366   XZ=             18.6145   YZ=              1.1692
 Traceless Quadrupole moment (field-independent basis, Debye-Ang):
   XX=             48.0641   YY=             -3.2558   ZZ=            -44.8084
   XY=            -35.7366   XZ=             18.6145   YZ=              1.1692
 Octapole moment (field-independent basis, Debye-Ang**2):
  XXX=            207.1834  YYY=             28.3302  ZZZ=             -0.7337  XYY=             -6.7283
  XXY=            -63.4001  XXZ=             16.7057  XZZ=             12.6036  YZZ=             -0.4639
  YYZ=              8.8135  XYZ=            -37.3394
 Hexadecapole moment (field-independent basis, Debye-Ang**3):
 XXXX=          -1688.0417 YYYY=           -725.1862 ZZZZ=           -250.3687 XXXY=           -510.8637
 XXXZ=            230.4008 YYYX=           -221.6746 YYYZ=             10.1318 ZZZX=             48.9755
 ZZZY=              8.3188 XXYY=           -207.2104 XXZZ=           -518.0312 YYZZ=           -187.5235
 XXYZ=            -33.1867 YYXZ=              8.5683 ZZXY=            -33.0391
 N-N= 8.939574085864D+02 E-N=-3.227496329387D+03  KE= 6.268752823303D+02
 1\1\GINC-E09\FOpt\RHF\6-31G(d)\C8H21N3O2(2+)\WISE\18-May-2016\1\\# opt
 =z-matrix HF/6-31G* scf=tight\\Title Card Required\\2,1\N\H,1,B1\H,1,B
 2,2,A1\H,1,B3,2,A2,3,D1,0\C,1,B4,2,A3,3,D2,0\H,5,B5,1,A4,2,D3,0\C,5,B6
 ,1,A5,6,D4,0\H,7,B7,5,A6,6,D5,0\H,7,B8,5,A7,6,D6,0\C,7,B9,5,A8,6,D7,0\
 H,10,B10,7,A9,5,D8,0\H,10,B11,7,A10,5,D9,0\C,10,B12,7,A11,5,D10,0\H,13
 ,B13,10,A12,7,D11,0\C,13,B14,10,A13,7,D12,0\H,15,B15,13,A14,10,D13,0\H
 ,15,B16,13,A15,10,D14,0\N,15,B17,13,A16,10,D15,0\H,18,B18,15,A17,13,D1
 6,0\H,18,B19,15,A18,13,D17,0\H,18,B20,15,A19,13,D18,0\O,13,B21,10,A20,
 7,D19,0\C,22,B22,13,A21,10,D20,0\H,23,B23,22,A22,13,D21,0\H,23,B24,22,
 A23,13,D22,0\H,23,B25,22,A24,13,D23,0\C,5,B26,7,A25,10,D24,0\O,27,B27,
 5,A26,7,D25,0\N,27,B28,5,A27,7,D26,0\H,29,B29,27,A28,5,D27,0\C,29,B30,
 27,A29,5,D28,0\H,31,B31,29,A30,27,D29,0\H,31,B32,29,A31,27,D30,0\H,31,
 B33,29,A32,27,D31,0\\B1=1.01253317\B2=1.01841828\B3=1.01061907\B4=1.50
 87197\B5=1.08123255\B6=1.53947669\B7=1.08472759\B8=1.08555924\B9=1.537
 94966\B10=1.08532284\B11=1.08556887\B12=1.54541682\B13=1.08988191\B14=
 1.53142033\B15=1.07972257\B16=1.08036024\B17=1.50296003\B18=1.01138286
 \B19=1.01168559\B20=1.01400597\B21=1.39435788\B22=1.41483562\B23=1.084
 90019\B24=1.07816792\B25=1.08248387\B26=1.54064815\B27=1.20410327\B28=
 1.3238215\B29=0.99577802\B30=1.46621588\B31=1.0815116\B32=1.07811706\B
 33=1.07939105\A1=106.62478136\A2=107.40769693\A3=112.10601613\A4=107.2
 8951801\A5=108.04101293\A6=108.09872992\A7=107.98579808\A8=113.4510675
 8\A9=108.40813307\A10=111.10054274\A11=114.06654524\A12=110.00753148\A
 13=109.24380535\A14=112.81515715\A15=110.63479433\A16=109.24678353\A17
 =112.49710084\A18=112.11667706\A19=108.59534839\A20=114.45023226\A21=1
 19.02992898\A22=110.84757563\A23=106.73046821\A24=110.95049481\A25=112
 .14293109\A26=115.86559165\A27=117.70188288\A28=119.5326459\A29=122.45
 189457\A30=110.79363008\A31=109.15547619\A32=108.50177675\D1=-117.4070
 2509\D2=117.31261543\D3=45.40155077\D4=120.72067195\D5=57.75887812\D6=
 -186.1232119\D7=-64.80492422\D8=-60.82570691\D9=56.47759567\D10=177.88
 296141\D11=28.59435357\D12=148.43599713\D13=-70.43835756\D14=52.977744
 88\D15=169.44666956\D16=69.75659297\D17=-169.25549129\D18=-49.1203796\
 D19=-95.67108914\D20=73.56642989\D21=47.94665947\D22=167.05093388\D23=
 -74.72996974\D24=64.30477738\D25=75.75372354\D26=256.04872409\D27=-4.1
 7595186\D28=180.09716585\D29=-91.63905939\D30=28.79764542\D31=148.1094
 3663\\Version=AM64L-G09RevD.01\State=1-A\HF=-627.7291061\RMSD=5.777e-0
 9\RMSF=2.586e-05\Dipole=-1.4665702,0.77656,-1.9838295\Quadrupole=-31.8
 853517,-7.835951,39.7213027,2.3331307,19.933526,19.0737633\PG=C01 [X(C
 8H21N3O2)]\\@


 The cat could very well be man's best friend
 but would never stoop to admitting it.
                               -- Doug Larson
 Job cpu time:       0 days  1 hours 49 minutes  0.1 seconds.
 File lengths (MBytes):  RWF=     27 Int=      0 D2E=      0 Chk=      5 Scr=      1
 Normal termination of Gaussian 09 at Wed May 18 22:35:43 2016.
