 Entering Gaussian System, Link 0=/programs/g09/g09
 Input=/scratch2/Wise/temp/temp_05192016/temp/NLYS_q.com
 Output=/scratch2/Wise/temp/temp_05192016/temp/NLYS_q.log
 Initial command:
 /programs/g09/l1.exe "/tmp/Wise/NLYS_q/Gau-25763.inp" -scrdir="/tmp/Wise/NLYS_q/"
 Entering Link 1 = /programs/g09/l1.exe PID=     25764.
  
 Copyright (c) 1988,1990,1992,1993,1995,1998,2003,2009,2013,
            Gaussian, Inc.  All Rights Reserved.
  
 This is part of the Gaussian(R) 09 program.  It is based on
 the Gaussian(R) 03 system (copyright 2003, Gaussian, Inc.),
 the Gaussian(R) 98 system (copyright 1998, Gaussian, Inc.),
 the Gaussian(R) 94 system (copyright 1995, Gaussian, Inc.),
 the Gaussian 92(TM) system (copyright 1992, Gaussian, Inc.),
 the Gaussian 90(TM) system (copyright 1990, Gaussian, Inc.),
 the Gaussian 88(TM) system (copyright 1988, Gaussian, Inc.),
 the Gaussian 86(TM) system (copyright 1986, Carnegie Mellon
 University), and the Gaussian 82(TM) system (copyright 1983,
 Carnegie Mellon University). Gaussian is a federally registered
 trademark of Gaussian, Inc.
  
 This software contains proprietary and confidential information,
 including trade secrets, belonging to Gaussian, Inc.
  
 This software is provided under written license and may be
 used, copied, transmitted, or stored only in accord with that
 written license.
  
 The following legend is applicable only to US Government
 contracts under FAR:
  
                    RESTRICTED RIGHTS LEGEND
  
 Use, reproduction and disclosure by the US Government is
 subject to restrictions as set forth in subparagraphs (a)
 and (c) of the Commercial Computer Software - Restricted
 Rights clause in FAR 52.227-19.
  
 Gaussian, Inc.
 340 Quinnipiac St., Bldg. 40, Wallingford CT 06492
  
  
 ---------------------------------------------------------------
 Warning -- This program may not be used in any manner that
 competes with the business of Gaussian, Inc. or will provide
 assistance to any competitor of Gaussian, Inc.  The licensee
 of this program is prohibited from giving any competitor of
 Gaussian, Inc. access to this program.  By using this program,
 the user acknowledges that Gaussian, Inc. is engaged in the
 business of creating and licensing software in the field of
 computational chemistry and represents and warrants to the
 licensee that it is not a competitor of Gaussian, Inc. and that
 it will not use this program in any manner prohibited above.
 ---------------------------------------------------------------
  

 Cite this work as:
 Gaussian 09, Revision D.01,
 M. J. Frisch, G. W. Trucks, H. B. Schlegel, G. E. Scuseria, 
 M. A. Robb, J. R. Cheeseman, G. Scalmani, V. Barone, B. Mennucci, 
 G. A. Petersson, H. Nakatsuji, M. Caricato, X. Li, H. P. Hratchian, 
 A. F. Izmaylov, J. Bloino, G. Zheng, J. L. Sonnenberg, M. Hada, 
 M. Ehara, K. Toyota, R. Fukuda, J. Hasegawa, M. Ishida, T. Nakajima, 
 Y. Honda, O. Kitao, H. Nakai, T. Vreven, J. A. Montgomery, Jr., 
 J. E. Peralta, F. Ogliaro, M. Bearpark, J. J. Heyd, E. Brothers, 
 K. N. Kudin, V. N. Staroverov, T. Keith, R. Kobayashi, J. Normand, 
 K. Raghavachari, A. Rendell, J. C. Burant, S. S. Iyengar, J. Tomasi, 
 M. Cossi, N. Rega, J. M. Millam, M. Klene, J. E. Knox, J. B. Cross, 
 V. Bakken, C. Adamo, J. Jaramillo, R. Gomperts, R. E. Stratmann, 
 O. Yazyev, A. J. Austin, R. Cammi, C. Pomelli, J. W. Ochterski, 
 R. L. Martin, K. Morokuma, V. G. Zakrzewski, G. A. Voth, 
 P. Salvador, J. J. Dannenberg, S. Dapprich, A. D. Daniels, 
 O. Farkas, J. B. Foresman, J. V. Ortiz, J. Cioslowski, 
 and D. J. Fox, Gaussian, Inc., Wallingford CT, 2013.
 
 ******************************************
 Gaussian 09:  AM64L-G09RevD.01 24-Apr-2013
                18-May-2016 
 ******************************************
 %mem=8GB
 %nproc=8
 Will use up to    8 processors via shared memory.
 --------------------------------------------
 # HF/6-31G* scf=tight iop(6/33=2) pop=chelpg
 --------------------------------------------
 1/38=1/1;
 2/12=2,17=6,18=5,40=1/2;
 3/5=1,6=6,7=1,11=9,16=1,25=1,30=1/1,2,3;
 4//1;
 5/5=2,32=2,38=5/2;
 6/7=2,8=2,9=2,10=2,15=8,20=3,28=1,33=2/1,2;
 99/5=1,9=1/99;
 -------------------
 Title Card Required
 -------------------
 Symbolic Z-matrix:
 Charge =  2 Multiplicity = 1
 N
 H                    1    B1
 H                    1    B2       2    A1
 H                    1    B3       2    A2       3    D1       0
 C                    1    B4       4    A3       2    D2       0
 H                    5    B5       1    A4       4    D3       0
 C                    5    B6       1    A5       4    D4       0
 H                    7    B7       5    A6       1    D5       0
 H                    7    B8       5    A7       1    D6       0
 C                    7    B9       5    A8       1    D7       0
 H                    10   B10      7    A9       5    D8       0
 H                    10   B11      7    A10      5    D9       0
 C                    10   B12      7    A11      5    D10      0
 H                    13   B13      10   A12      7    D11      0
 C                    13   B14      10   A13      7    D12      0
 H                    15   B15      13   A14      10   D13      0
 H                    15   B16      13   A15      10   D14      0
 N                    15   B17      13   A16      10   D15      0
 H                    18   B18      15   A17      13   D16      0
 H                    18   B19      15   A18      13   D17      0
 H                    18   B20      15   A19      13   D18      0
 O                    13   B21      10   A20      7    D19      0
 C                    22   B22      13   A21      10   D20      0
 H                    23   B23      22   A22      13   D21      0
 H                    23   B24      22   A23      13   D22      0
 H                    23   B25      22   A24      13   D23      0
 C                    5    B26      1    A25      7    D24      0
 O                    27   B27      5    A26      1    D25      0
 N                    27   B28      5    A27      1    D26      0
 H                    29   B29      27   A28      5    D27      0
 C                    29   B30      27   A29      5    D28      0
 H                    31   B31      29   A30      27   D29      0
 H                    31   B32      29   A31      27   D30      0
 H                    31   B33      29   A32      27   D31      0
       Variables:
  B1                    1.01253                  
  B2                    1.01842                  
  B3                    1.01062                  
  B4                    1.50872                  
  B5                    1.08123                  
  B6                    1.53948                  
  B7                    1.08473                  
  B8                    1.08556                  
  B9                    1.53795                  
  B10                   1.08532                  
  B11                   1.08557                  
  B12                   1.54542                  
  B13                   1.08988                  
  B14                   1.53142                  
  B15                   1.07972                  
  B16                   1.08036                  
  B17                   1.50296                  
  B18                   1.01138                  
  B19                   1.01169                  
  B20                   1.01401                  
  B21                   1.39436                  
  B22                   1.41484                  
  B23                   1.0849                   
  B24                   1.07817                  
  B25                   1.08248                  
  B26                   1.54065                  
  B27                   1.2041                   
  B28                   1.32382                  
  B29                   0.99578                  
  B30                   1.46622                  
  B31                   1.08151                  
  B32                   1.07812                  
  B33                   1.07939                  
  A1                  106.62479                  
  A2                  107.40767                  
  A3                  113.45492                  
  A4                  107.28951                  
  A5                  108.041                    
  A6                  108.09875                  
  A7                  107.98582                  
  A8                  113.45107                  
  A9                  108.40809                  
  A10                 111.10051                  
  A11                 114.06651                  
  A12                 110.00759                  
  A13                 109.24379                  
  A14                 112.81517                  
  A15                 110.6348                   
  A16                 109.24682                  
  A17                 112.49708                  
  A18                 112.11668                  
  A19                 108.59531                  
  A20                 114.45021                  
  A21                 119.02986                  
  A22                 110.84762                  
  A23                 106.7304                   
  A24                 110.95051                  
  A25                 103.17865                  
  A26                 115.86556                  
  A27                 117.7019                   
  A28                 119.53263                  
  A29                 122.45194                  
  A30                 110.79366                  
  A31                 109.15544                  
  A32                 108.50179                  
  D1                 -117.40701                  
  D2                  124.4675                   
  D3                  -76.48387                  
  D4                   44.23682                  
  D5                  -60.08909                  
  D6                   56.02885                  
  D7                  177.34711                  
  D8                  -60.82571                  
  D9                   56.4776                   
  D10                 177.88297                  
  D11                  28.59438                  
  D12                 148.43601                  
  D13                 -70.43836                  
  D14                  52.9777                   
  D15                 169.44663                  
  D16                  69.75655                  
  D17                -169.25546                  
  D18                 -49.12037                  
  D19                 -95.67114                  
  D20                  73.56651                  
  D21                  47.94668                  
  D22                 167.0509                   
  D23                 -74.73004                  
  D24                 118.9075                   
  D25                 -40.26636                  
  D26                 140.02861                  
  D27                  -4.17594                  
  D28                -179.90286                  
  D29                 -91.63903                  
  D30                  28.79767                  
  D31                 148.10942                  
 
                          Input orientation:                          
 ---------------------------------------------------------------------
 Center     Atomic      Atomic             Coordinates (Angstroms)
 Number     Number       Type             X           Y           Z
 ---------------------------------------------------------------------
      1          7           0        0.000000    0.000000    0.000000
      2          1           0        0.000000    0.000000    1.012533
      3          1           0        0.975847    0.000000   -0.291372
      4          1           0       -0.443891    0.856096   -0.302345
      5          6           0       -0.641380   -1.241979   -0.567764
      6          1           0       -1.556300   -1.411584   -0.017110
      7          6           0       -0.910635   -0.998204   -2.063780
      8          1           0       -1.576913   -0.146767   -2.151887
      9          1           0        0.029895   -0.728631   -2.534070
     10          6           0       -1.508499   -2.218044   -2.784780
     11          1           0       -0.802486   -3.039134   -2.712097
     12          1           0       -2.425805   -2.544795   -2.304944
     13          6           0       -1.832543   -1.972526   -4.275762
     14          1           0       -1.161353   -1.216940   -4.683726
     15          6           0       -1.651495   -3.279299   -5.053460
     16          1           0       -0.616362   -3.572829   -5.143699
     17          1           0       -2.219012   -4.076526   -4.595713
     18          7           0       -2.209119   -3.112498   -6.439144
     19          1           0       -1.652182   -2.488624   -7.007912
     20          1           0       -2.271881   -3.993204   -6.933032
     21          1           0       -3.138228   -2.712648   -6.367837
     22          8           0       -3.156814   -1.615857   -4.527417
     23          6           0       -3.595093   -0.315617   -4.182383
     24          1           0       -2.897284    0.434460   -4.539391
     25          1           0       -4.550849   -0.173156   -4.660588
     26          1           0       -3.726144   -0.222693   -3.111887
     27          6           0        0.429374   -2.325953   -0.339544
     28          8           0        1.568114   -1.989946   -0.540138
     29          7           0        0.019664   -3.523952    0.047027
     30          1           0       -0.945874   -3.674313    0.238605
     31          6           0        0.948607   -4.630670    0.296083
     32          1           0        1.089721   -5.222150   -0.598291
     33          1           0        1.898399   -4.230833    0.612882
     34          1           0        0.539468   -5.251856    1.078271
 ---------------------------------------------------------------------
                    Distance matrix (angstroms):
                    1          2          3          4          5
     1  N    0.000000
     2  H    1.012533   0.000000
     3  H    1.018418   1.628634   0.000000
     4  H    1.010619   1.630597   1.657913   0.000000
     5  C    1.508720   2.109791   2.057748   2.123997   0.000000
     6  H    2.101173   2.339830   2.911968   2.541885   1.081232
     7  C    2.466750   3.359965   2.774284   2.599794   1.539476
     8  H    2.671856   3.538609   3.162221   2.389618   2.141064
     9  H    2.636912   3.620799   2.540752   2.777845   2.140209
    10  C    3.866560   4.649180   4.160381   4.092212   2.572889
    11  H    4.151601   4.873725   4.273022   4.594378   2.802479
    12  H    4.203960   4.833856   4.701243   4.416383   2.810569
    13  C    5.052842   5.934235   5.258638   5.071242   3.962552
    14  H    4.976643   5.939449   5.034018   4.899870   4.148752
    15  C    6.246495   7.090664   6.350922   6.413493   5.029162
    16  H    6.293063   7.144522   6.232600   6.563827   5.135432
    17  H    6.531666   7.279733   6.734429   6.776047   5.171843
    18  N    7.485348   8.372297   7.591229   7.518382   6.358440
    19  H    7.617991   8.558650   7.629658   7.590239   6.637119
    20  H    8.317094   9.178188   8.402682   8.415656   7.123511
    21  H    7.599755   8.466215   7.823522   7.535620   6.483669
    22  O    5.750997   6.577804   6.134652   5.596582   4.705958
    23  C    5.524186   6.325461   6.011078   5.133972   4.758995
    24  H    5.402692   6.277490   5.765029   4.914211   4.865529
    25  H    6.516233   7.274924   7.047298   6.076245   5.759995
    26  H    4.859792   5.562785   5.487587   4.453144   4.126412
    27  C    2.389499   2.724432   2.389772   3.299910   1.540648
    28  O    2.590485   2.971473   2.091064   3.493517   2.332827
    29  N    3.524320   3.653878   3.667020   4.418344   2.454047
    30  H    3.801604   3.872237   4.180247   4.590122   2.580543
    31  C    4.736098   4.780823   4.667864   5.692255   3.841552
    32  H    5.368081   5.572531   5.232401   6.275717   4.340439
    33  H    4.677552   4.654416   4.423655   5.674576   4.096053
    34  H    5.388478   5.279900   5.445029   6.338783   4.492544
                    6          7          8          9         10
     6  H    0.000000
     7  C    2.185548   0.000000
     8  H    2.481423   1.084728   0.000000
     9  H    3.052462   1.085559   1.751132   0.000000
    10  C    2.883168   1.537950   2.166892   2.155890   0.000000
    11  H    3.237300   2.144157   3.046205   2.462311   1.085323
    12  H    2.697108   2.178496   2.548447   3.062909   1.085568
    13  C    4.304310   2.586906   2.812399   2.837154   1.545417
    14  H    4.687342   2.640989   2.779959   2.505702   2.174561
    15  C    5.372359   3.832813   4.270532   3.959837   2.508709
    16  H    5.642373   4.025070   4.648816   3.913729   2.862839
    17  H    5.338980   4.195069   4.672000   4.529499   2.690403
    18  N    6.675463   5.029922   5.251269   5.093684   3.826918
    19  H    7.073932   5.216866   5.391747   5.093351   4.234230
    20  H    7.416656   5.876448   6.175549   5.941926   4.576237
    21  H    6.672855   5.140661   5.176455   5.354540   3.967235
    22  O    4.790223   3.390623   3.208964   3.862087   2.473127
    23  C    4.765219   3.487222   2.867834   4.003505   3.150618
    24  H    5.065288   3.482521   2.789513   3.733962   3.470326
    25  H    5.662413   4.547008   3.890832   5.080734   4.117781
    26  H    3.962238   3.102747   2.355113   3.833755   3.001062
    27  C    2.209736   2.555686   3.472553   2.743531   3.121886
    28  O    3.220251   3.073960   3.985754   2.816522   3.815231
    29  N    2.636262   3.420580   4.334704   3.804731   3.472723
    30  H    2.357532   3.530408   4.307697   4.161357   3.402664
    31  C    4.090864   4.713867   5.698789   4.907107   4.620590
    32  H    4.675427   4.898041   5.940043   5.006214   4.533887
    33  H    4.503332   5.050256   6.033352   5.065573   5.215590
    34  H    4.509967   5.483506   6.401166   5.811044   5.321781
                   11         12         13         14         15
    11  H    0.000000
    12  H    1.745081   0.000000
    13  C    2.154929   2.136252   0.000000
    14  H    2.708597   3.003438   1.089881   0.000000
    15  C    2.502094   2.948456   1.531420   2.151805   0.000000
    16  H    2.496429   3.519867   2.189379   2.461463   1.079723
    17  H    2.575021   2.763437   2.162994   3.050184   1.080361
    18  N    3.984329   4.178618   2.474181   2.787911   1.502960
    19  H    4.413509   4.766503   2.786311   2.694426   2.108329
    20  H    4.570083   4.851884   3.367082   3.741696   2.104122
    21  H    4.350484   4.128295   2.574756   2.996899   2.063748
    22  O    3.296052   2.517277   1.394358   2.040939   2.304289
    23  C    4.168685   3.140261   2.420877   2.643259   3.649625
    24  H    4.448937   3.753799   2.645138   2.400294   3.950730
    25  H    5.104965   3.961002   3.282531   3.546647   4.267169
    26  H    4.079209   2.781042   2.828824   3.168179   4.173334
    27  C    2.766788   3.473145   4.553569   4.757335   5.240218
    28  O    3.382004   4.401566   5.051699   5.021638   5.691958
    29  N    2.919546   3.531407   4.952181   5.394176   5.372857
    30  H    3.021698   3.152087   4.905280   5.505857   5.353493
    31  C    3.827331   4.743720   5.975140   6.395622   6.099536
    32  H    3.579690   4.737069   5.711696   6.148156   5.580095
    33  H    4.446394   5.482260   6.551238   6.819068   6.753858
    34  H    4.589539   5.250445   6.711640   7.236985   6.803633
                   16         17         18         19         20
    16  H    0.000000
    17  H    1.767055   0.000000
    18  N    2.104034   2.080309   0.000000
    19  H    2.392428   2.943031   1.011383   0.000000
    20  H    2.473696   2.339401   1.011685   1.628925   0.000000
    21  H    2.932274   2.417756   1.014006   1.633467   1.646155
    22  O    3.265492   2.634204   2.606293   3.029603   3.495979
    23  C    4.517343   4.026025   3.851810   4.059615   4.779289
    24  H    4.650393   4.562042   4.082101   4.023468   5.071968
    25  H    5.222198   4.547303   4.157727   4.390170   4.995044
    26  H    5.002241   4.396046   4.660792   4.961328   5.561725
    27  C    5.072294   5.309749   6.692191   6.987594   7.317827
    28  O    5.335750   5.928223   7.094074   7.242312   7.721897
    29  N    5.229775   5.183826   6.870749   7.323874   7.361563
    30  H    5.393336   5.015306   6.819367   7.376770   7.300162
    31  C    5.758418   5.854106   7.592059   8.043681   7.939648
    32  H    5.127544   5.314090   7.031966   7.488220   7.275962
    33  H    6.316266   6.641261   8.237321   8.585943   8.624878
    34  H    6.547364   6.417531   8.285114   8.821855   8.583057
                   21         22         23         24         25
    21  H    0.000000
    22  O    2.142532   0.000000
    23  C    3.275773   1.414836   0.000000
    24  H    3.647678   2.066712   1.084900   0.000000
    25  H    3.370343   2.010586   1.078168   1.765833   0.000000
    26  H    4.140861   2.066100   1.082483   1.776690   1.755297
    27  C    7.015528   5.559070   5.916518   6.027043   6.936035
    28  O    7.525558   6.193809   6.536667   6.466185   7.597404
    29  N    7.195900   5.886966   6.422444   6.724050   7.367433
    30  H    7.026827   5.642735   6.151775   6.596914   7.018265
    31  C    8.049152   7.014965   7.702048   7.989258   8.641877
    32  H    7.580291   6.817363   7.672500   7.964027   8.591311
    33  H    8.740877   7.669155   8.276589   8.444493   9.266447
    34  H    8.684328   7.635884   8.314777   8.700781   9.199947
                   26         27         28         29         30
    26  H    0.000000
    27  C    5.420140   0.000000
    28  O    6.145424   1.204104   0.000000
    29  N    5.908310   1.323821   2.257351   0.000000
    30  H    5.556022   2.010881   3.124687   0.995779   0.000000
    31  C    7.273089   2.446497   2.838394   1.466216   2.122965
    32  H    7.382770   2.981773   3.267933   2.108396   2.690695
    33  H    7.846947   2.587222   2.541676   2.085550   2.922274
    34  H    7.813153   3.253188   3.783836   2.078296   2.323773
                   31         32         33         34
    31  C    0.000000
    32  H    1.081511   0.000000
    33  H    1.078117   1.761707   0.000000
    34  H    1.079391   1.764800   1.762319   0.000000
 Stoichiometry    C8H21N3O2(2+)
 Framework group  C1[X(C8H21N3O2)]
 Deg. of freedom    96
 Full point group                 C1      NOp   1
 Largest Abelian subgroup         C1      NOp   1
 Largest concise Abelian subgroup C1      NOp   1
                         Standard orientation:                         
 ---------------------------------------------------------------------
 Center     Atomic      Atomic             Coordinates (Angstroms)
 Number     Number       Type             X           Y           Z
 ---------------------------------------------------------------------
      1          7           0       -2.434966    2.234112    0.399967
      2          1           0       -3.298130    2.465154   -0.076259
      3          1           0       -2.693158    1.910485    1.330439
      4          1           0       -1.894061    3.084493    0.474971
      5          6           0       -1.694503    1.109481   -0.280588
      6          1           0       -1.699418    1.317249   -1.341659
      7          6           0       -0.264390    1.067553    0.287748
      8          1           0        0.209040    2.021053    0.079575
      9          1           0       -0.335121    0.965072    1.366142
     10          6           0        0.585477   -0.082760   -0.277758
     11          1           0        0.106439   -1.021807   -0.019612
     12          1           0        0.632493   -0.037813   -1.361376
     13          6           0        2.039849   -0.107469    0.244261
     14          1           0        2.085741    0.330776    1.241094
     15          6           0        2.528347   -1.557448    0.308905
     16          1           0        2.049837   -2.125922    1.092274
     17          1           0        2.383633   -2.050681   -0.641336
     18          7           0        4.009362   -1.570360    0.564476
     19          1           0        4.243534   -1.262152    1.498856
     20          1           0        4.408727   -2.491988    0.443578
     21          1           0        4.455520   -0.934491   -0.087308
     22          8           0        2.963802    0.518360   -0.591732
     23          6           0        2.977272    1.931271   -0.664268
     24          1           0        2.965568    2.368966    0.328352
     25          1           0        3.889859    2.207526   -1.167572
     26          1           0        2.138451    2.297168   -1.242428
     27          6           0       -2.511670   -0.136582    0.110772
     28          8           0       -2.911114   -0.167485    1.246270
     29          7           0       -2.702314   -1.063276   -0.815184
     30          1           0       -2.373662   -0.906068   -1.741925
     31          6           0       -3.465027   -2.288535   -0.556729
     32          1           0       -2.812277   -3.084183   -0.224271
     33          1           0       -4.203520   -2.091762    0.203695
     34          1           0       -3.957695   -2.584470   -1.470395
 ---------------------------------------------------------------------
 Rotational constants (GHZ):      1.1112889      0.3524822      0.2929898
 Standard basis: 6-31G(d) (6D, 7F)
 There are   237 symmetry adapted cartesian basis functions of A   symmetry.
 There are   237 symmetry adapted basis functions of A   symmetry.
   237 basis functions,   448 primitive gaussians,   237 cartesian basis functions
    52 alpha electrons       52 beta electrons
       nuclear repulsion energy       893.9573945954 Hartrees.
 NAtoms=   34 NActive=   34 NUniq=   34 SFac= 1.00D+00 NAtFMM=   60 NAOKFM=F Big=F
 Integral buffers will be    131072 words long.
 Raffenetti 1 integral format.
 Two-electron integral symmetry is turned on.
 One-electron integrals computed using PRISM.
 NBasis=   237 RedAO= T EigKep=  2.11D-03  NBF=   237
 NBsUse=   237 1.00D-06 EigRej= -1.00D+00 NBFU=   237
 ExpMin= 1.61D-01 ExpMax= 5.48D+03 ExpMxC= 8.25D+02 IAcc=1 IRadAn=         1 AccDes= 0.00D+00
 Harris functional with IExCor=  205 and IRadAn=       1 diagonalized for initial guess.
 HarFok:  IExCor=  205 AccDes= 0.00D+00 IRadAn=         1 IDoV= 1 UseB2=F ITyADJ=14
 ICtDFT=  3500011 ScaDFX=  1.000000  1.000000  1.000000  1.000000
 FoFCou: FMM=F IPFlag=           0 FMFlag=      100000 FMFlg1=           0
         NFxFlg=           0 DoJE=T BraDBF=F KetDBF=T FulRan=T
         wScrn=  0.000000 ICntrl=     500 IOpCl=  0 I1Cent=   200000004 NGrid=           0
         NMat0=    1 NMatS0=      1 NMatT0=    0 NMatD0=    1 NMtDS0=    0 NMtDT0=    0
 Petite list used in FoFCou.
 Keep R1 ints in memory in canonical form, NReq=404649997.
 Requested convergence on RMS density matrix=1.00D-08 within 128 cycles.
 Requested convergence on MAX density matrix=1.00D-06.
 Requested convergence on             energy=1.00D-06.
 No special actions if energy rises.
 SCF Done:  E(RHF) =  -627.729106137     A.U. after   13 cycles
            NFock= 13  Conv=0.72D-08     -V/T= 2.0014

 **********************************************************************

            Population analysis using the SCF density.

 **********************************************************************

 Orbital symmetries:
 BldTbl:  Degeneracy threshold= 1.00D-02
       Occupied  (A) (A) (A) (A) (A) (A) (A) (A) (A) (A) (A) (A)
                 (A) (A) (A) (A) (A) (A) (A) (A) (A) (A) (A) (A)
                 (A) (A) (A) (A) (A) (A) (A) (A) (A) (A) (A) (A)
                 (A) (A) (A) (A) (A) (A) (A) (A) (A) (A) (A) (A)
                 (A) (A) (A) (A)
       Virtual   (A) (A) (A) (A) (A) (A) (A) (A) (A) (A) (A) (A)
                 (A) (A) (A) (A) (A) (A) (A) (A) (A) (A) (A) (A)
                 (A) (A) (A) (A) (A) (A) (A) (A) (A) (A) (A) (A)
                 (A) (A) (A) (A) (A) (A) (A) (A) (A) (A) (A) (A)
                 (A) (A) (A) (A) (A) (A) (A) (A) (A) (A) (A) (A)
                 (A) (A) (A) (A) (A) (A) (A) (A) (A) (A) (A) (A)
                 (A) (A) (A) (A) (A) (A) (A) (A) (A) (A) (A) (A)
                 (A) (A) (A) (A) (A) (A) (A) (A) (A) (A) (A) (A)
                 (A) (A) (A) (A) (A) (A) (A) (A) (A) (A) (A) (A)
                 (A) (A) (A) (A) (A) (A) (A) (A) (A) (A) (A) (A)
                 (A) (A) (A) (A) (A) (A) (A) (A) (A) (A) (A) (A)
                 (A) (A) (A) (A) (A) (A) (A) (A) (A) (A) (A) (A)
                 (A) (A) (A) (A) (A) (A) (A) (A) (A) (A) (A) (A)
                 (A) (A) (A) (A) (A) (A) (A) (A) (A) (A) (A) (A)
                 (A) (A) (A) (A) (A) (A) (A) (A) (A) (A) (A) (A)
                 (A) (A) (A) (A) (A)
 The electronic state is 1-A.
 Alpha  occ. eigenvalues --  -20.82581 -20.77865 -15.96634 -15.96616 -15.83514
 Alpha  occ. eigenvalues --  -11.60678 -11.57890 -11.56546 -11.56338 -11.51434
 Alpha  occ. eigenvalues --  -11.50551 -11.49945 -11.46357  -1.65646  -1.65226
 Alpha  occ. eigenvalues --   -1.58666  -1.58619  -1.48202  -1.36543  -1.31491
 Alpha  occ. eigenvalues --   -1.23926  -1.18838  -1.17703  -1.12701  -1.08681
 Alpha  occ. eigenvalues --   -1.06273  -1.05093  -1.04036  -1.03680  -1.03189
 Alpha  occ. eigenvalues --   -0.96433  -0.95087  -0.94023  -0.93087  -0.90785
 Alpha  occ. eigenvalues --   -0.88361  -0.87704  -0.87123  -0.84941  -0.84345
 Alpha  occ. eigenvalues --   -0.82295  -0.81730  -0.80286  -0.79200  -0.76902
 Alpha  occ. eigenvalues --   -0.76463  -0.76061  -0.75688  -0.72800  -0.68150
 Alpha  occ. eigenvalues --   -0.67707  -0.62966
 Alpha virt. eigenvalues --   -0.08568  -0.08319  -0.06581  -0.02865  -0.02282
 Alpha virt. eigenvalues --   -0.01618  -0.01419   0.00327   0.01431   0.01797
 Alpha virt. eigenvalues --    0.02404   0.02987   0.03786   0.05180   0.06087
 Alpha virt. eigenvalues --    0.06328   0.06949   0.08056   0.08708   0.10049
 Alpha virt. eigenvalues --    0.10300   0.11901   0.12629   0.13021   0.13781
 Alpha virt. eigenvalues --    0.14523   0.15063   0.16310   0.17526   0.18876
 Alpha virt. eigenvalues --    0.20177   0.23362   0.27373   0.37818   0.42253
 Alpha virt. eigenvalues --    0.43487   0.45960   0.47061   0.48400   0.49766
 Alpha virt. eigenvalues --    0.50974   0.52029   0.53207   0.54596   0.55605
 Alpha virt. eigenvalues --    0.57251   0.58538   0.58753   0.59575   0.61513
 Alpha virt. eigenvalues --    0.63637   0.66987   0.68071   0.69066   0.71006
 Alpha virt. eigenvalues --    0.72867   0.75078   0.76216   0.77660   0.79091
 Alpha virt. eigenvalues --    0.79436   0.80417   0.81562   0.82766   0.83268
 Alpha virt. eigenvalues --    0.84035   0.84421   0.85032   0.86141   0.87201
 Alpha virt. eigenvalues --    0.87928   0.88297   0.90244   0.90907   0.91646
 Alpha virt. eigenvalues --    0.91930   0.92775   0.93259   0.94265   0.94766
 Alpha virt. eigenvalues --    0.95568   0.97359   0.97653   0.98891   0.99081
 Alpha virt. eigenvalues --    1.00981   1.03139   1.04247   1.07257   1.09885
 Alpha virt. eigenvalues --    1.11918   1.12808   1.16064   1.17516   1.20092
 Alpha virt. eigenvalues --    1.24009   1.25469   1.31011   1.34889   1.36914
 Alpha virt. eigenvalues --    1.38736   1.40955   1.43477   1.46224   1.48667
 Alpha virt. eigenvalues --    1.50681   1.53920   1.56128   1.58165   1.60165
 Alpha virt. eigenvalues --    1.63089   1.63321   1.67299   1.70576   1.73964
 Alpha virt. eigenvalues --    1.78092   1.80854   1.82672   1.84678   1.85170
 Alpha virt. eigenvalues --    1.89503   1.91344   1.92531   1.95232   1.96669
 Alpha virt. eigenvalues --    1.97985   1.99657   2.00542   2.02539   2.03447
 Alpha virt. eigenvalues --    2.07000   2.08730   2.09631   2.11620   2.15103
 Alpha virt. eigenvalues --    2.17351   2.19321   2.19855   2.21449   2.23305
 Alpha virt. eigenvalues --    2.26785   2.28108   2.30892   2.34030   2.36990
 Alpha virt. eigenvalues --    2.38026   2.38887   2.41250   2.41815   2.42636
 Alpha virt. eigenvalues --    2.43798   2.46261   2.47114   2.49968   2.52386
 Alpha virt. eigenvalues --    2.54607   2.57379   2.59557   2.66096   2.69176
 Alpha virt. eigenvalues --    2.69776   2.72689   2.76864   2.79823   2.83472
 Alpha virt. eigenvalues --    2.87283   2.91440   2.98655   3.04354   3.07305
 Alpha virt. eigenvalues --    3.14475   3.31286   3.90799   3.92944   4.14884
 Alpha virt. eigenvalues --    4.17347   4.31970   4.40581   4.44568   4.45643
 Alpha virt. eigenvalues --    4.48489   4.56631   4.64642   4.73367   4.84342
          Condensed to atoms (all electrons):
               1          2          3          4          5          6
     1  N    6.962706   0.305547   0.276011   0.308877   0.188948  -0.031856
     2  H    0.305547   0.245642  -0.005629  -0.009034  -0.016066  -0.001057
     3  H    0.276011  -0.005629   0.230603  -0.007523  -0.022685   0.002548
     4  H    0.308877  -0.009034  -0.007523   0.255557  -0.020966  -0.001380
     5  C    0.188948  -0.016066  -0.022685  -0.020966   5.297740   0.392677
     6  H   -0.031856  -0.001057   0.002548  -0.001380   0.392677   0.422378
     7  C   -0.067189   0.002991  -0.000140  -0.000715   0.326023  -0.025870
     8  H   -0.001812  -0.000137  -0.000219   0.002593  -0.042388  -0.002896
     9  H   -0.001665  -0.000004   0.002003  -0.000358  -0.040055   0.003111
    10  C    0.002734  -0.000057  -0.000022   0.000035  -0.043661  -0.000828
    11  H   -0.000021  -0.000001   0.000012   0.000006  -0.005401   0.000160
    12  H    0.000003   0.000001  -0.000002   0.000003  -0.002101   0.000976
    13  C   -0.000037   0.000001   0.000001  -0.000003   0.003859  -0.000069
    14  H   -0.000002   0.000000  -0.000001   0.000001   0.000012  -0.000005
    15  C    0.000000   0.000000   0.000000   0.000000  -0.000093   0.000001
    16  H    0.000000   0.000000   0.000000   0.000000   0.000001   0.000000
    17  H    0.000000   0.000000   0.000000   0.000000  -0.000002   0.000000
    18  N    0.000000   0.000000   0.000000   0.000000   0.000000   0.000000
    19  H    0.000000   0.000000   0.000000   0.000000   0.000000   0.000000
    20  H    0.000000   0.000000   0.000000   0.000000   0.000000   0.000000
    21  H    0.000000   0.000000   0.000000   0.000000   0.000000   0.000000
    22  O    0.000000   0.000000   0.000000   0.000000  -0.000076  -0.000001
    23  C    0.000000   0.000000   0.000000  -0.000002   0.000025   0.000013
    24  H    0.000000   0.000000   0.000000   0.000000   0.000000  -0.000001
    25  H    0.000000   0.000000   0.000000   0.000000  -0.000001   0.000000
    26  H   -0.000005   0.000000   0.000000  -0.000004   0.000178   0.000040
    27  C   -0.063809  -0.001642  -0.006041   0.004201   0.334295  -0.034549
    28  O   -0.014604   0.000836   0.032419   0.000123  -0.096896   0.002382
    29  N    0.000434   0.000287   0.001298  -0.000084  -0.106540   0.006434
    30  H    0.000009  -0.000008  -0.000040  -0.000002   0.000870   0.001229
    31  C   -0.000069  -0.000010  -0.000018   0.000001   0.003530  -0.000061
    32  H   -0.000002   0.000000  -0.000001   0.000000  -0.000159   0.000001
    33  H    0.000013  -0.000002  -0.000001   0.000000   0.000220  -0.000007
    34  H    0.000002   0.000000   0.000000   0.000000  -0.000047  -0.000009
               7          8          9         10         11         12
     1  N   -0.067189  -0.001812  -0.001665   0.002734  -0.000021   0.000003
     2  H    0.002991  -0.000137  -0.000004  -0.000057  -0.000001   0.000001
     3  H   -0.000140  -0.000219   0.002003  -0.000022   0.000012  -0.000002
     4  H   -0.000715   0.002593  -0.000358   0.000035   0.000006   0.000003
     5  C    0.326023  -0.042388  -0.040055  -0.043661  -0.005401  -0.002101
     6  H   -0.025870  -0.002896   0.003111  -0.000828   0.000160   0.000976
     7  C    5.165087   0.396419   0.396868   0.321981  -0.039841  -0.035539
     8  H    0.396419   0.488624  -0.024395  -0.031200   0.003296  -0.001302
     9  H    0.396868  -0.024395   0.463412  -0.030880  -0.001784   0.002864
    10  C    0.321981  -0.031200  -0.030880   5.203306   0.394655   0.391124
    11  H   -0.039841   0.003296  -0.001784   0.394655   0.483351  -0.019796
    12  H   -0.035539  -0.001302   0.002864   0.391124  -0.019796   0.468874
    13  C   -0.034244  -0.002711  -0.003285   0.339630  -0.039206  -0.033923
    14  H   -0.002813   0.001038   0.001135  -0.053005   0.002785   0.003662
    15  C    0.003261   0.000026  -0.000022  -0.053437  -0.002361  -0.002089
    16  H   -0.000089  -0.000004   0.000040  -0.000497  -0.000233   0.000172
    17  H    0.000072   0.000006  -0.000003  -0.004026   0.001087   0.001181
    18  N   -0.000065   0.000000  -0.000002   0.003299   0.000139  -0.000125
    19  H    0.000000   0.000000  -0.000001  -0.000026   0.000006   0.000001
    20  H    0.000001   0.000000   0.000000  -0.000027  -0.000008   0.000001
    21  H   -0.000009  -0.000001   0.000000   0.000444  -0.000024   0.000021
    22  O    0.001373   0.000312   0.000043  -0.047692   0.002396   0.001061
    23  C   -0.001400  -0.000333   0.000110  -0.001005  -0.000045  -0.000014
    24  H    0.000005   0.000102  -0.000007  -0.001125   0.000000   0.000191
    25  H    0.000046   0.000072  -0.000001  -0.000201   0.000004  -0.000045
    26  H   -0.002176  -0.000369   0.000056   0.003904  -0.000047  -0.000283
    27  C   -0.048411   0.004074  -0.003729  -0.001457   0.003598  -0.000430
    28  O    0.001051  -0.000029   0.004706  -0.000549  -0.000034  -0.000001
    29  N   -0.002490  -0.000118   0.000369   0.000708   0.001099   0.000241
    30  H   -0.000078  -0.000002  -0.000007   0.000201  -0.000047   0.000206
    31  C   -0.000076   0.000002  -0.000003  -0.000032   0.000019   0.000003
    32  H    0.000042   0.000000   0.000001   0.000000  -0.000002  -0.000001
    33  H   -0.000019   0.000000  -0.000002   0.000003   0.000005   0.000000
    34  H   -0.000003   0.000000   0.000000   0.000001  -0.000002   0.000000
              13         14         15         16         17         18
     1  N   -0.000037  -0.000002   0.000000   0.000000   0.000000   0.000000
     2  H    0.000001   0.000000   0.000000   0.000000   0.000000   0.000000
     3  H    0.000001  -0.000001   0.000000   0.000000   0.000000   0.000000
     4  H   -0.000003   0.000001   0.000000   0.000000   0.000000   0.000000
     5  C    0.003859   0.000012  -0.000093   0.000001  -0.000002   0.000000
     6  H   -0.000069  -0.000005   0.000001   0.000000   0.000000   0.000000
     7  C   -0.034244  -0.002813   0.003261  -0.000089   0.000072  -0.000065
     8  H   -0.002711   0.001038   0.000026  -0.000004   0.000006   0.000000
     9  H   -0.003285   0.001135  -0.000022   0.000040  -0.000003  -0.000002
    10  C    0.339630  -0.053005  -0.053437  -0.000497  -0.004026   0.003299
    11  H   -0.039206   0.002785  -0.002361  -0.000233   0.001087   0.000139
    12  H   -0.033923   0.003662  -0.002089   0.000172   0.001181  -0.000125
    13  C    4.793000   0.401490   0.357546  -0.030339  -0.032761  -0.051461
    14  H    0.401490   0.526614  -0.040821   0.000369   0.003459  -0.002639
    15  C    0.357546  -0.040821   5.134467   0.394198   0.399420   0.154753
    16  H   -0.030339   0.000369   0.394198   0.414822  -0.014964  -0.031343
    17  H   -0.032761   0.003459   0.399420  -0.014964   0.414735  -0.037156
    18  N   -0.051461  -0.002639   0.154753  -0.031343  -0.037156   6.933815
    19  H   -0.001033   0.001544  -0.015051  -0.001600   0.002354   0.304832
    20  H    0.003086  -0.000158  -0.017989  -0.001190  -0.002416   0.309940
    21  H   -0.008156   0.000658  -0.020029   0.002390  -0.000468   0.288960
    22  O    0.202421  -0.041242  -0.071744   0.002433   0.001377  -0.014132
    23  C   -0.039316  -0.003216   0.004560  -0.000074  -0.000124   0.000303
    24  H   -0.005965   0.006744   0.000148   0.000011   0.000013  -0.000087
    25  H    0.003559  -0.000087  -0.000056   0.000001   0.000003   0.000057
    26  H   -0.003574  -0.000687  -0.000417   0.000002  -0.000010  -0.000001
    27  C   -0.000067   0.000000  -0.000001  -0.000002   0.000001   0.000000
    28  O   -0.000011  -0.000002   0.000000   0.000000   0.000000   0.000000
    29  N    0.000107  -0.000001  -0.000007  -0.000001   0.000000   0.000000
    30  H   -0.000002   0.000000   0.000000   0.000000   0.000000   0.000000
    31  C   -0.000002   0.000000   0.000000   0.000000   0.000000   0.000000
    32  H   -0.000002   0.000000   0.000000   0.000000   0.000000   0.000000
    33  H    0.000000   0.000000   0.000000   0.000000   0.000000   0.000000
    34  H    0.000000   0.000000   0.000000   0.000000   0.000000   0.000000
              19         20         21         22         23         24
     1  N    0.000000   0.000000   0.000000   0.000000   0.000000   0.000000
     2  H    0.000000   0.000000   0.000000   0.000000   0.000000   0.000000
     3  H    0.000000   0.000000   0.000000   0.000000   0.000000   0.000000
     4  H    0.000000   0.000000   0.000000   0.000000  -0.000002   0.000000
     5  C    0.000000   0.000000   0.000000  -0.000076   0.000025   0.000000
     6  H    0.000000   0.000000   0.000000  -0.000001   0.000013  -0.000001
     7  C    0.000000   0.000001  -0.000009   0.001373  -0.001400   0.000005
     8  H    0.000000   0.000000  -0.000001   0.000312  -0.000333   0.000102
     9  H   -0.000001   0.000000   0.000000   0.000043   0.000110  -0.000007
    10  C   -0.000026  -0.000027   0.000444  -0.047692  -0.001005  -0.001125
    11  H    0.000006  -0.000008  -0.000024   0.002396  -0.000045   0.000000
    12  H    0.000001   0.000001   0.000021   0.001061  -0.000014   0.000191
    13  C   -0.001033   0.003086  -0.008156   0.202421  -0.039316  -0.005965
    14  H    0.001544  -0.000158   0.000658  -0.041242  -0.003216   0.006744
    15  C   -0.015051  -0.017989  -0.020029  -0.071744   0.004560   0.000148
    16  H   -0.001600  -0.001190   0.002390   0.002433  -0.000074   0.000011
    17  H    0.002354  -0.002416  -0.000468   0.001377  -0.000124   0.000013
    18  N    0.304832   0.309940   0.288960  -0.014132   0.000303  -0.000087
    19  H    0.259517  -0.009296  -0.007255   0.000327  -0.000034   0.000013
    20  H   -0.009296   0.247141  -0.007924   0.000256   0.000002  -0.000002
    21  H   -0.007255  -0.007924   0.236545   0.025132  -0.001063   0.000100
    22  O    0.000327   0.000256   0.025132   8.533481   0.170845  -0.036165
    23  C   -0.000034   0.000002  -0.001063   0.170845   4.884183   0.390778
    24  H    0.000013  -0.000002   0.000100  -0.036165   0.390778   0.529921
    25  H   -0.000001  -0.000001  -0.000270  -0.029411   0.403620  -0.023026
    26  H    0.000001   0.000001   0.000094  -0.037523   0.393236  -0.038838
    27  C    0.000000   0.000000   0.000000   0.000000  -0.000001   0.000000
    28  O    0.000000   0.000000   0.000000   0.000000   0.000000   0.000000
    29  N    0.000000   0.000000   0.000000   0.000000   0.000000   0.000000
    30  H    0.000000   0.000000   0.000000   0.000000   0.000000   0.000000
    31  C    0.000000   0.000000   0.000000   0.000000   0.000000   0.000000
    32  H    0.000000   0.000000   0.000000   0.000000   0.000000   0.000000
    33  H    0.000000   0.000000   0.000000   0.000000   0.000000   0.000000
    34  H    0.000000   0.000000   0.000000   0.000000   0.000000   0.000000
              25         26         27         28         29         30
     1  N    0.000000  -0.000005  -0.063809  -0.014604   0.000434   0.000009
     2  H    0.000000   0.000000  -0.001642   0.000836   0.000287  -0.000008
     3  H    0.000000   0.000000  -0.006041   0.032419   0.001298  -0.000040
     4  H    0.000000  -0.000004   0.004201   0.000123  -0.000084  -0.000002
     5  C   -0.000001   0.000178   0.334295  -0.096896  -0.106540   0.000870
     6  H    0.000000   0.000040  -0.034549   0.002382   0.006434   0.001229
     7  C    0.000046  -0.002176  -0.048411   0.001051  -0.002490  -0.000078
     8  H    0.000072  -0.000369   0.004074  -0.000029  -0.000118  -0.000002
     9  H   -0.000001   0.000056  -0.003729   0.004706   0.000369  -0.000007
    10  C   -0.000201   0.003904  -0.001457  -0.000549   0.000708   0.000201
    11  H    0.000004  -0.000047   0.003598  -0.000034   0.001099  -0.000047
    12  H   -0.000045  -0.000283  -0.000430  -0.000001   0.000241   0.000206
    13  C    0.003559  -0.003574  -0.000067  -0.000011   0.000107  -0.000002
    14  H   -0.000087  -0.000687   0.000000  -0.000002  -0.000001   0.000000
    15  C   -0.000056  -0.000417  -0.000001   0.000000  -0.000007   0.000000
    16  H    0.000001   0.000002  -0.000002   0.000000  -0.000001   0.000000
    17  H    0.000003  -0.000010   0.000001   0.000000   0.000000   0.000000
    18  N    0.000057  -0.000001   0.000000   0.000000   0.000000   0.000000
    19  H   -0.000001   0.000001   0.000000   0.000000   0.000000   0.000000
    20  H   -0.000001   0.000001   0.000000   0.000000   0.000000   0.000000
    21  H   -0.000270   0.000094   0.000000   0.000000   0.000000   0.000000
    22  O   -0.029411  -0.037523   0.000000   0.000000   0.000000   0.000000
    23  C    0.403620   0.393236  -0.000001   0.000000   0.000000   0.000000
    24  H   -0.023026  -0.038838   0.000000   0.000000   0.000000   0.000000
    25  H    0.432522  -0.026073   0.000000   0.000000   0.000000   0.000000
    26  H   -0.026073   0.539582  -0.000002   0.000000   0.000000   0.000000
    27  C    0.000000  -0.000002   4.189220   0.568964   0.316503  -0.024015
    28  O    0.000000   0.000000   0.568964   8.191112  -0.090286   0.002024
    29  N    0.000000   0.000000   0.316503  -0.090286   7.300450   0.325219
    30  H    0.000000   0.000000  -0.024015   0.002024   0.325219   0.299919
    31  C    0.000000   0.000000  -0.029778   0.001796   0.149083  -0.016120
    32  H    0.000000   0.000000  -0.002482   0.000470  -0.041564   0.000827
    33  H    0.000000   0.000000  -0.002262   0.003319  -0.034488   0.002056
    34  H    0.000000   0.000000   0.003696   0.000231  -0.034032  -0.003597
              31         32         33         34
     1  N   -0.000069  -0.000002   0.000013   0.000002
     2  H   -0.000010   0.000000  -0.000002   0.000000
     3  H   -0.000018  -0.000001  -0.000001   0.000000
     4  H    0.000001   0.000000   0.000000   0.000000
     5  C    0.003530  -0.000159   0.000220  -0.000047
     6  H   -0.000061   0.000001  -0.000007  -0.000009
     7  C   -0.000076   0.000042  -0.000019  -0.000003
     8  H    0.000002   0.000000   0.000000   0.000000
     9  H   -0.000003   0.000001  -0.000002   0.000000
    10  C   -0.000032   0.000000   0.000003   0.000001
    11  H    0.000019  -0.000002   0.000005  -0.000002
    12  H    0.000003  -0.000001   0.000000   0.000000
    13  C   -0.000002  -0.000002   0.000000   0.000000
    14  H    0.000000   0.000000   0.000000   0.000000
    15  C    0.000000   0.000000   0.000000   0.000000
    16  H    0.000000   0.000000   0.000000   0.000000
    17  H    0.000000   0.000000   0.000000   0.000000
    18  N    0.000000   0.000000   0.000000   0.000000
    19  H    0.000000   0.000000   0.000000   0.000000
    20  H    0.000000   0.000000   0.000000   0.000000
    21  H    0.000000   0.000000   0.000000   0.000000
    22  O    0.000000   0.000000   0.000000   0.000000
    23  C    0.000000   0.000000   0.000000   0.000000
    24  H    0.000000   0.000000   0.000000   0.000000
    25  H    0.000000   0.000000   0.000000   0.000000
    26  H    0.000000   0.000000   0.000000   0.000000
    27  C   -0.029778  -0.002482  -0.002262   0.003696
    28  O    0.001796   0.000470   0.003319   0.000231
    29  N    0.149083  -0.041564  -0.034488  -0.034032
    30  H   -0.016120   0.000827   0.002056  -0.003597
    31  C    4.999790   0.402811   0.400659   0.397462
    32  H    0.402811   0.481418  -0.024643  -0.026426
    33  H    0.400659  -0.024643   0.426397  -0.019208
    34  H    0.397462  -0.026426  -0.019208   0.457292
 Mulliken charges:
               1
     1  N   -0.864213
     2  H    0.478342
     3  H    0.497427
     4  H    0.468673
     5  C   -0.151239
     6  H    0.266641
     7  C   -0.354051
     8  H    0.211352
     9  H    0.231483
    10  C   -0.392296
    11  H    0.216238
    12  H    0.225063
    13  C    0.181466
    14  H    0.195166
    15  C   -0.224261
    16  H    0.265896
    17  H    0.268223
    18  N   -0.859087
    19  H    0.465701
    20  H    0.478582
    21  H    0.490856
    22  O   -0.663472
    23  C   -0.201047
    24  H    0.177190
    25  H    0.239288
    26  H    0.172915
    27  C    0.794126
    28  O   -0.607020
    29  N   -0.792621
    30  H    0.411357
    31  C   -0.308988
    32  H    0.209711
    33  H    0.247960
    34  H    0.224641
 Sum of Mulliken charges =   2.00000
 Mulliken charges with hydrogens summed into heavy atoms:
               1
     1  N    0.580230
     5  C    0.115401
     7  C    0.088784
    10  C    0.049004
    13  C    0.376632
    15  C    0.309858
    18  N    0.576052
    22  O   -0.663472
    23  C    0.388346
    27  C    0.794126
    28  O   -0.607020
    29  N   -0.381264
    31  C    0.373324
 DipInt: DoE/N= T F RetVal/Mat= T F Init=T NMatP=  1 IDeriv=0 Min/MaxMlt=  0  4
 Entering OneElI...
 OneElI was handed  1073595128 working-precision words.
 Multipole integrals L=0 to 4 MinM= 0 MaxM= 0.
 Requested accuracy = 0.1000D-12
 ShPair: Thresh= 1.00D-13 NBox=     0 BxSize= 0.00D+00 RnKept= 1.75D+01
         NSMCal=                 4465 NSMKep=                3849
 PrsmSu:  NPrtUS=   1 ThrOK=F IAlg=1 NPAlg=1 LenDen=           0.
 Prism:   IPart=     0 DynPar=F LinDyn=F Incr=          38.
 PRISM was handed  1073294445 working-precision words and  3849 shell-pairs
 IPart=  0 NShTot=        3849 NBatch=          63 AvBLen=        61.1
 PrSmSu:  NxtVal=             39.
 Electronic moments (au):
       -104.00000000          2.50032939          0.66163038          0.00706033
      -2702.17521789       -831.94322462       -236.50002122        -26.56924371
         13.83943880          0.86928134      -1693.39503825        -45.01988014
        -25.59693770        467.77940193       2063.33917089        -96.52919922
        215.13862817         35.84266259        140.42187423       1063.67927587
    -105619.76412387     -14768.97419095      -1515.68392880      -2326.90644992
      -1934.06347069      -1653.44584248       -489.85763543        206.19983555
          1.25886351     -26128.18404375      -6710.99768830      -1750.50897445
        829.26077816       -893.29361335       -651.01664524
 Electronic spatial extent (au):  <R**2>=           3770.6185
 DipInt: DoE/N= F T RetVal/Mat= T F Init=T NMatP=  1 IDeriv=0 Min/MaxMlt=  0  4
 Nuclear    moments (au):
        106.00000000          0.00000000          0.00000000          0.00000000
       2718.98487253        810.59779777        184.26125001          0.00000000
          0.00000000          0.00000000       1984.48037682         84.82289479
         24.56609024       -477.23247364      -2152.41423886        119.99998383
       -197.43099080        -36.49436693       -128.03918283      -1116.13982733
     101138.01272868      12843.60585072        850.95510884        970.56470273
       2545.77793516       1064.90019687        516.75760021        -76.16973074
         20.82763870      25578.04072610       5335.62508284       1252.63412226
       -917.37114867        916.04259311        563.29794747
 Total      moments (au):
          2.00000000          2.50032939          0.66163038          0.00706033
         16.80965464        -21.34542685        -52.23877122        -26.56924371
         13.83943880          0.86928134        291.08533857         39.80301465
         -1.03084746         -9.45307171        -89.07506797         23.47078461
         17.70763737         -0.65170434         12.38269140        -52.46055147
      -4481.75139519      -1925.36834023       -664.72881996      -1356.34174718
        611.71446447       -588.54564561         26.89996478        130.03010481
         22.08650220       -550.14331765      -1375.37260546       -497.87485220
        -88.11037051         22.74897976        -87.71869776
 Traceless Quadrup. (au):
         35.73450245         -2.42057904        -33.31392341        -26.56924371
         13.83943880          0.86928134
 Charge=              2.0000 electrons
 Dipole moment (field-independent basis, Debye):
    X=              6.3552    Y=              1.6817    Z=              0.0179  Tot=              6.5740
 Quadrupole moment (field-independent basis, Debye-Ang):
   XX=             22.6096   YY=            -28.7103   ZZ=            -70.2629
   XY=            -35.7365   XZ=             18.6145   YZ=              1.1692
 Traceless Quadrupole moment (field-independent basis, Debye-Ang):
   XX=             48.0641   YY=             -3.2558   ZZ=            -44.8084
   XY=            -35.7365   XZ=             18.6145   YZ=              1.1692
 Octapole moment (field-independent basis, Debye-Ang**2):
  XXX=            207.1833  YYY=             28.3303  ZZZ=             -0.7337  XYY=             -6.7283
  XXY=            -63.4002  XXZ=             16.7056  XZZ=             12.6036  YZZ=             -0.4639
  YYZ=              8.8135  XYZ=            -37.3394
 Hexadecapole moment (field-independent basis, Debye-Ang**3):
 XXXX=          -1688.0424 YYYY=           -725.1860 ZZZZ=           -250.3687 XXXY=           -510.8633
 XXXZ=            230.4010 YYYX=           -221.6745 YYYZ=             10.1318 ZZZX=             48.9756
 ZZZY=              8.3188 XXYY=           -207.2103 XXZZ=           -518.0312 YYZZ=           -187.5235
 XXYZ=            -33.1866 YYXZ=              8.5684 ZZXY=            -33.0391
 N-N= 8.939573945954D+02 E-N=-3.227496300610D+03  KE= 6.268752804338D+02
 Entering OneElI...
 OneElI was handed  1073622244 working-precision words.
 Calculate electrostatic properties
    NBasis =   237  MinDer = 0  MaxDer = 0
    NGrid  =    34  NMatD  =   1
 Requested accuracy = 0.1000D-12
 PrtBox:  NBox=     1 Levels=  1 BoxLen=   29.89 SMaxX=       16.36
          Shift=            7.943502            5.828261            3.291761
 Box      1 Number                   0 centers from      1 to     94:
 ShPair: Thresh= 1.00D-13 NBox=     1 BxSize= 2.99D+01 RnKept= 1.73D+01
         NSMCal=                 4465 NSMKep=                3419
 PrsmSu:  NPrtUS=   8 ThrOK=T IAlg=1 NPAlg=1 LenDen=           0.
 Prism:   IPart=     0 DynPar=F LinDyn=F Incr=         145.
 PRISM was handed   134084046 working-precision words and  3419 shell-pairs
 PRISM was handed   134084046 working-precision words and  3419 shell-pairs
 PRISM was handed   134084046 working-precision words and  3419 shell-pairs
 PRISM was handed   134084046 working-precision words and  3419 shell-pairs
 PRISM was handed   134084046 working-precision words and  3419 shell-pairs
 PRISM was handed   134084046 working-precision words and  3419 shell-pairs
 PRISM was handed   134084046 working-precision words and  3419 shell-pairs
 PRISM was handed   134084046 working-precision words and  3419 shell-pairs
 IPart=  5 NShTot=       14178 NBatch=         417 AvBLen=        34.0
 IPart=  0 NShTot=       15130 NBatch=         445 AvBLen=        34.0
 IPart=  6 NShTot=       14008 NBatch=         412 AvBLen=        34.0
 IPart=  3 NShTot=       14688 NBatch=         432 AvBLen=        34.0
 IPart=  4 NShTot=       14518 NBatch=         427 AvBLen=        34.0
 IPart=  2 NShTot=       14824 NBatch=         436 AvBLen=        34.0
 IPart=  1 NShTot=       15062 NBatch=         443 AvBLen=        34.0
 IPart=  7 NShTot=       13838 NBatch=         407 AvBLen=        34.0
 PrSmSu:  NxtVal=           1161.
 --------------------------------------------------------
       Center         ----      EFG at Nuclei      ----
                      3XX-RR        3YY-RR        3ZZ-RR
 --------------------------------------------------------
     1   Atom       -0.030117     -0.058311      0.088428
     2   Atom       -0.212130      0.152692      0.059439
     3   Atom        0.133927      0.131897     -0.265824
     4   Atom        0.017114     -0.206503      0.189389
     5   Atom        0.086175     -0.189834      0.103659
     6   Atom        0.156951      0.125420     -0.282371
     7   Atom       -0.110431      0.046992      0.063439
     8   Atom        0.056087     -0.202345      0.146258
     9   Atom        0.139138      0.151412     -0.290550
    10   Atom       -0.042390     -0.004939      0.047329
    11   Atom        0.053351     -0.189426      0.136074
    12   Atom        0.146266      0.153333     -0.299600
    13   Atom       -0.004674     -0.022915      0.027589
    14   Atom        0.142817      0.073405     -0.216221
    15   Atom       -0.472996      0.234544      0.238452
    16   Atom        0.047512      0.036782     -0.084294
    17   Atom        0.125042      0.068083     -0.193124
    18   Atom       -0.025450      0.015613      0.009838
    19   Atom        0.155887      0.134715     -0.290602
    20   Atom        0.099765     -0.277186      0.177422
    21   Atom        0.065207     -0.020475     -0.044733
    22   Atom        0.410608     -1.210554      0.799946
    23   Atom        0.246172     -0.464022      0.217850
    24   Atom        0.164230      0.066999     -0.231229
    25   Atom       -0.175800      0.111204      0.064596
    26   Atom       -0.128622      0.092290      0.036332
    27   Atom       -0.290779      0.042247      0.248532
    28   Atom       -0.256927      1.074130     -0.817203
    29   Atom        0.507512     -0.141707     -0.365805
    30   Atom        0.167688      0.174120     -0.341809
    31   Atom        0.026548     -0.231421      0.204873
    32   Atom       -0.024494     -0.099136      0.123630
    33   Atom       -0.061159      0.127058     -0.065899
    34   Atom        0.066133      0.115916     -0.182050
 --------------------------------------------------------
                        XY            XZ            YZ
 --------------------------------------------------------
     1   Atom        0.018779     -0.025000     -0.068201
     2   Atom        0.105164     -0.226115      0.055186
     3   Atom       -0.031168      0.114181      0.133278
     4   Atom       -0.253132     -0.020777     -0.033756
     5   Atom        0.253061      0.149179     -0.239162
     6   Atom        0.009971      0.000522      0.078386
     7   Atom        0.010619     -0.073677     -0.028294
     8   Atom       -0.166879      0.037921      0.080305
     9   Atom        0.006526      0.027692      0.040989
    10   Atom        0.053290     -0.026966     -0.038936
    11   Atom       -0.163727      0.047037      0.097201
    12   Atom        0.006601      0.016188      0.019910
    13   Atom       -0.095407      0.159440      0.166019
    14   Atom       -0.007748     -0.015391     -0.155624
    15   Atom        0.011555     -0.135460      0.000431
    16   Atom       -0.101112      0.141459      0.179769
    17   Atom       -0.019946     -0.056739     -0.186154
    18   Atom        0.031616     -0.039793     -0.050284
    19   Atom       -0.035565     -0.114576     -0.159317
    20   Atom        0.196247      0.023302     -0.062721
    21   Atom       -0.153744      0.155106      0.206676
    22   Atom       -0.612202      1.209844      0.736633
    23   Atom       -0.018983     -0.023269      0.032740
    24   Atom        0.001365      0.008406     -0.159859
    25   Atom       -0.098421      0.188029      0.056343
    26   Atom        0.116380     -0.195346      0.082220
    27   Atom        0.253284     -0.194747      0.085767
    28   Atom        0.822916      0.196485      0.240925
    29   Atom       -0.480329      0.243652     -0.190489
    30   Atom       -0.067131      0.204629      0.084684
    31   Atom       -0.278395      0.033617      0.091792
    32   Atom        0.200526     -0.088155      0.108431
    33   Atom        0.050492      0.231831     -0.059854
    34   Atom       -0.070008     -0.178614     -0.100155
 --------------------------------------------------------


 ---------------------------------------------------------------------------------
              Nuclear Quadrupole Coupling Constant in Principal Axis System
 ---------------------------------------------------------------------------------

       Atom             a.u.   MegaHertz   Gauss  10(-4) cm-1        Axes

              Baa    -0.0865     0.415     0.148     0.138 -0.1587  0.9273  0.3390
     1 N(14)  Bbb    -0.0348     0.167     0.060     0.056  0.9677  0.0781  0.2395
              Bcc     0.1212    -0.582    -0.208    -0.194 -0.1957 -0.3660  0.9098
 
              Baa    -0.0514     0.247     0.088     0.082  0.8247  0.0346  0.5646
    18 N(14)  Bbb    -0.0345     0.166     0.059     0.055 -0.3866  0.7631  0.5180
              Bcc     0.0859    -0.413    -0.147    -0.138  0.4129  0.6454 -0.6426
 
              Baa    -0.4769     2.291     0.817     0.764  0.0803  0.5770  0.8128
    29 N(14)  Bbb    -0.3628     1.742     0.622     0.581  0.5188  0.6720 -0.5284
              Bcc     0.8397    -4.033    -1.439    -1.345  0.8511 -0.4642  0.2454
 

 ---------------------------------------------------------------------------------

 No NMR shielding tensors so no spin-rotation constants.
 Leave Link  601 at Wed May 18 23:24:40 2016, MaxMem=  1073741824 cpu:         2.5
 FitSet:  NAtFit=    34 NAtPot=    34 NAtFrz=     0 MDM=    38 TotChg=   2.00000
 Breneman (CHELPG) radii used.
 Atom Element Radius
    1     7    1.70
    2     1    1.45
    3     1    1.45
    4     1    1.45
    5     6    1.50
    6     1    1.45
    7     6    1.50
    8     1    1.45
    9     1    1.45
   10     6    1.50
   11     1    1.45
   12     1    1.45
   13     6    1.50
   14     1    1.45
   15     6    1.50
   16     1    1.45
   17     1    1.45
   18     7    1.70
   19     1    1.45
   20     1    1.45
   21     1    1.45
   22     8    1.70
   23     6    1.50
   24     1    1.45
   25     1    1.45
   26     1    1.45
   27     6    1.50
   28     8    1.70
   29     7    1.70
   30     1    1.45
   31     6    1.50
   32     1    1.45
   33     1    1.45
   34     1    1.45
 Generate Potential Derived Charges using the Breneman model, NDens= 1.
 Grid spacing= 0.300 Box extension= 2.800
 NStep X,Y,Z=   49     41     31   Total possible points=       62279
 Number of Points to Fit=   18697
 Approximate Molecular Volume= 1088.31 A**3

 **********************************************************************

            Electrostatic Properties Using The SCF Density

 **********************************************************************

       Atomic Center    1 is at  -2.434966  2.234112  0.399967
       Atomic Center    2 is at  -3.298130  2.465154 -0.076259
       Atomic Center    3 is at  -2.693158  1.910485  1.330439
       Atomic Center    4 is at  -1.894061  3.084493  0.474971
       Atomic Center    5 is at  -1.694503  1.109481 -0.280588
       Atomic Center    6 is at  -1.699418  1.317249 -1.341659
       Atomic Center    7 is at  -0.264390  1.067553  0.287748
       Atomic Center    8 is at   0.209040  2.021053  0.079575
       Atomic Center    9 is at  -0.335121  0.965072  1.366142
       Atomic Center   10 is at   0.585477 -0.082760 -0.277758
       Atomic Center   11 is at   0.106439 -1.021807 -0.019612
       Atomic Center   12 is at   0.632493 -0.037813 -1.361376
       Atomic Center   13 is at   2.039849 -0.107469  0.244261
       Atomic Center   14 is at   2.085741  0.330776  1.241094
       Atomic Center   15 is at   2.528347 -1.557448  0.308905
       Atomic Center   16 is at   2.049837 -2.125922  1.092274
       Atomic Center   17 is at   2.383633 -2.050681 -0.641336
       Atomic Center   18 is at   4.009362 -1.570360  0.564476
       Atomic Center   19 is at   4.243534 -1.262152  1.498856
       Atomic Center   20 is at   4.408727 -2.491988  0.443578
       Atomic Center   21 is at   4.455520 -0.934491 -0.087308
       Atomic Center   22 is at   2.963802  0.518360 -0.591732
       Atomic Center   23 is at   2.977272  1.931271 -0.664268
       Atomic Center   24 is at   2.965568  2.368966  0.328352
       Atomic Center   25 is at   3.889859  2.207526 -1.167572
       Atomic Center   26 is at   2.138451  2.297168 -1.242428
       Atomic Center   27 is at  -2.511670 -0.136582  0.110772
       Atomic Center   28 is at  -2.911114 -0.167485  1.246270
       Atomic Center   29 is at  -2.702314 -1.063276 -0.815184
       Atomic Center   30 is at  -2.373662 -0.906068 -1.741925
       Atomic Center   31 is at  -3.465027 -2.288535 -0.556729
       Atomic Center   32 is at  -2.812277 -3.084183 -0.224271
       Atomic Center   33 is at  -4.203520 -2.091762  0.203695
       Atomic Center   34 is at  -3.957695 -2.584470 -1.470395
      ESP Fit Center   35 is at  -6.774000 -2.999845 -0.421535
      ESP Fit Center   36 is at  -6.774000 -2.999845 -0.121535
      ESP Fit Center   37 is at  -6.774000 -2.999845  0.178465
      ESP Fit Center   38 is at  -6.774000 -2.999845  0.478465
      ESP Fit Center   39 is at  -6.774000 -2.999845  0.778465
      ESP Fit Center   40 is at  -6.774000 -2.699845 -0.721535
      ESP Fit Center   41 is at  -6.774000 -2.699845 -0.421535
      ESP Fit Center   42 is at  -6.774000 -2.699845 -0.121535
      ESP Fit Center   43 is at  -6.774000 -2.699845  0.178465
      ESP Fit Center   44 is at  -6.774000 -2.699845  0.478465
      ESP Fit Center   45 is at  -6.774000 -2.699845  0.778465
      ESP Fit Center   46 is at  -6.774000 -2.699845  1.078465
      ESP Fit Center   47 is at  -6.774000 -2.399845 -0.721535
      ESP Fit Center   48 is at  -6.774000 -2.399845 -0.421535
      ESP Fit Center   49 is at  -6.774000 -2.399845 -0.121535
      ESP Fit Center   50 is at  -6.774000 -2.399845  0.178465
      ESP Fit Center   51 is at  -6.774000 -2.399845  0.478465
      ESP Fit Center   52 is at  -6.774000 -2.399845  0.778465
      ESP Fit Center   53 is at  -6.774000 -2.399845  1.078465
      ESP Fit Center   54 is at  -6.774000 -2.099845 -0.721535
      ESP Fit Center   55 is at  -6.774000 -2.099845 -0.421535
      ESP Fit Center   56 is at  -6.774000 -2.099845 -0.121535
      ESP Fit Center   57 is at  -6.774000 -2.099845  0.178465
      ESP Fit Center   58 is at  -6.774000 -2.099845  0.478465
      ESP Fit Center   59 is at  -6.774000 -2.099845  0.778465
      ESP Fit Center   60 is at  -6.774000 -2.099845  1.078465
      ESP Fit Center   61 is at  -6.774000 -1.799845 -0.721535
      ESP Fit Center   62 is at  -6.774000 -1.799845 -0.421535
      ESP Fit Center   63 is at  -6.774000 -1.799845 -0.121535
      ESP Fit Center   64 is at  -6.774000 -1.799845  0.178465
      ESP Fit Center   65 is at  -6.774000 -1.799845  0.478465
      ESP Fit Center   66 is at  -6.774000 -1.799845  0.778465
      ESP Fit Center   67 is at  -6.774000 -1.799845  1.078465
      ESP Fit Center   68 is at  -6.774000 -1.499845 -0.721535
      ESP Fit Center   69 is at  -6.774000 -1.499845 -0.421535
      ESP Fit Center   70 is at  -6.774000 -1.499845 -0.121535
      ESP Fit Center   71 is at  -6.774000 -1.499845  0.178465
      ESP Fit Center   72 is at  -6.774000 -1.499845  0.478465
      ESP Fit Center   73 is at  -6.774000 -1.499845  0.778465
      ESP Fit Center   74 is at  -6.774000 -1.499845  1.078465
      ESP Fit Center   75 is at  -6.774000 -1.199845 -0.421535
      ESP Fit Center   76 is at  -6.774000 -1.199845 -0.121535
      ESP Fit Center   77 is at  -6.774000 -1.199845  0.178465
      ESP Fit Center   78 is at  -6.774000 -1.199845  0.478465
      ESP Fit Center   79 is at  -6.774000 -1.199845  0.778465
      ESP Fit Center   80 is at  -6.474000 -3.599845 -1.921535
      ESP Fit Center   81 is at  -6.474000 -3.599845 -1.621535
      ESP Fit Center   82 is at  -6.474000 -3.599845 -1.321535
      ESP Fit Center   83 is at  -6.474000 -3.599845 -1.021535
      ESP Fit Center   84 is at  -6.474000 -3.599845 -0.421535
      ESP Fit Center   85 is at  -6.474000 -3.599845 -0.121535
      ESP Fit Center   86 is at  -6.474000 -3.599845  0.178465
      ESP Fit Center   87 is at  -6.474000 -3.599845  0.478465
      ESP Fit Center   88 is at  -6.474000 -3.599845  0.778465
      ESP Fit Center   89 is at  -6.474000 -3.299845 -2.221535
      ESP Fit Center   90 is at  -6.474000 -3.299845 -1.921535
      ESP Fit Center   91 is at  -6.474000 -3.299845 -1.621535
      ESP Fit Center   92 is at  -6.474000 -3.299845 -1.321535
      ESP Fit Center   93 is at  -6.474000 -3.299845 -1.021535
      ESP Fit Center   94 is at  -6.474000 -3.299845 -0.721535
      ESP Fit Center   95 is at  -6.474000 -3.299845 -0.421535
      ESP Fit Center   96 is at  -6.474000 -3.299845 -0.121535
      ESP Fit Center   97 is at  -6.474000 -3.299845  0.178465
      ESP Fit Center   98 is at  -6.474000 -3.299845  0.478465
      ESP Fit Center   99 is at  -6.474000 -3.299845  0.778465
      ESP Fit Center  100 is at  -6.474000 -3.299845  1.078465
      ESP Fit Center  101 is at  -6.474000 -2.999845 -2.521535
      ESP Fit Center  102 is at  -6.474000 -2.999845 -2.221535
      ESP Fit Center  103 is at  -6.474000 -2.999845 -1.921535
      ESP Fit Center  104 is at  -6.474000 -2.999845 -1.621535
      ESP Fit Center  105 is at  -6.474000 -2.999845 -1.321535
      ESP Fit Center  106 is at  -6.474000 -2.999845 -1.021535
      ESP Fit Center  107 is at  -6.474000 -2.999845 -0.721535
      ESP Fit Center  108 is at  -6.474000 -2.999845 -0.421535
      ESP Fit Center  109 is at  -6.474000 -2.999845 -0.121535
      ESP Fit Center  110 is at  -6.474000 -2.999845  0.178465
      ESP Fit Center  111 is at  -6.474000 -2.999845  0.478465
      ESP Fit Center  112 is at  -6.474000 -2.999845  0.778465
      ESP Fit Center  113 is at  -6.474000 -2.999845  1.078465
      ESP Fit Center  114 is at  -6.474000 -2.999845  1.378465
      ESP Fit Center  115 is at  -6.474000 -2.699845 -2.521535
      ESP Fit Center  116 is at  -6.474000 -2.699845 -2.221535
      ESP Fit Center  117 is at  -6.474000 -2.699845 -1.921535
      ESP Fit Center  118 is at  -6.474000 -2.699845 -1.621535
      ESP Fit Center  119 is at  -6.474000 -2.699845 -1.321535
      ESP Fit Center  120 is at  -6.474000 -2.699845 -1.021535
      ESP Fit Center  121 is at  -6.474000 -2.699845 -0.721535
      ESP Fit Center  122 is at  -6.474000 -2.699845 -0.421535
      ESP Fit Center  123 is at  -6.474000 -2.699845 -0.121535
      ESP Fit Center  124 is at  -6.474000 -2.699845  0.178465
      ESP Fit Center  125 is at  -6.474000 -2.699845  0.478465
      ESP Fit Center  126 is at  -6.474000 -2.699845  0.778465
      ESP Fit Center  127 is at  -6.474000 -2.699845  1.078465
      ESP Fit Center  128 is at  -6.474000 -2.699845  1.378465
      ESP Fit Center  129 is at  -6.474000 -2.699845  1.678465
      ESP Fit Center  130 is at  -6.474000 -2.399845 -2.521535
      ESP Fit Center  131 is at  -6.474000 -2.399845 -2.221535
      ESP Fit Center  132 is at  -6.474000 -2.399845 -1.921535
      ESP Fit Center  133 is at  -6.474000 -2.399845 -1.621535
      ESP Fit Center  134 is at  -6.474000 -2.399845 -1.321535
      ESP Fit Center  135 is at  -6.474000 -2.399845 -1.021535
      ESP Fit Center  136 is at  -6.474000 -2.399845 -0.721535
      ESP Fit Center  137 is at  -6.474000 -2.399845 -0.421535
      ESP Fit Center  138 is at  -6.474000 -2.399845 -0.121535
      ESP Fit Center  139 is at  -6.474000 -2.399845  0.178465
      ESP Fit Center  140 is at  -6.474000 -2.399845  0.478465
      ESP Fit Center  141 is at  -6.474000 -2.399845  0.778465
      ESP Fit Center  142 is at  -6.474000 -2.399845  1.078465
      ESP Fit Center  143 is at  -6.474000 -2.399845  1.378465
      ESP Fit Center  144 is at  -6.474000 -2.399845  1.678465
      ESP Fit Center  145 is at  -6.474000 -2.099845 -2.521535
      ESP Fit Center  146 is at  -6.474000 -2.099845 -2.221535
      ESP Fit Center  147 is at  -6.474000 -2.099845 -1.921535
      ESP Fit Center  148 is at  -6.474000 -2.099845 -1.621535
      ESP Fit Center  149 is at  -6.474000 -2.099845 -1.321535
      ESP Fit Center  150 is at  -6.474000 -2.099845 -1.021535
      ESP Fit Center  151 is at  -6.474000 -2.099845 -0.721535
      ESP Fit Center  152 is at  -6.474000 -2.099845 -0.421535
      ESP Fit Center  153 is at  -6.474000 -2.099845 -0.121535
      ESP Fit Center  154 is at  -6.474000 -2.099845  0.178465
      ESP Fit Center  155 is at  -6.474000 -2.099845  0.478465
      ESP Fit Center  156 is at  -6.474000 -2.099845  0.778465
      ESP Fit Center  157 is at  -6.474000 -2.099845  1.078465
      ESP Fit Center  158 is at  -6.474000 -2.099845  1.378465
      ESP Fit Center  159 is at  -6.474000 -2.099845  1.678465
      ESP Fit Center  160 is at  -6.474000 -1.799845 -2.221535
      ESP Fit Center  161 is at  -6.474000 -1.799845 -1.921535
      ESP Fit Center  162 is at  -6.474000 -1.799845 -1.621535
      ESP Fit Center  163 is at  -6.474000 -1.799845 -1.321535
      ESP Fit Center  164 is at  -6.474000 -1.799845 -1.021535
      ESP Fit Center  165 is at  -6.474000 -1.799845 -0.721535
      ESP Fit Center  166 is at  -6.474000 -1.799845 -0.421535
      ESP Fit Center  167 is at  -6.474000 -1.799845 -0.121535
      ESP Fit Center  168 is at  -6.474000 -1.799845  0.178465
      ESP Fit Center  169 is at  -6.474000 -1.799845  0.478465
      ESP Fit Center  170 is at  -6.474000 -1.799845  0.778465
      ESP Fit Center  171 is at  -6.474000 -1.799845  1.078465
      ESP Fit Center  172 is at  -6.474000 -1.799845  1.378465
      ESP Fit Center  173 is at  -6.474000 -1.799845  1.678465
      ESP Fit Center  174 is at  -6.474000 -1.499845 -1.921535
      ESP Fit Center  175 is at  -6.474000 -1.499845 -1.621535
      ESP Fit Center  176 is at  -6.474000 -1.499845 -1.321535
      ESP Fit Center  177 is at  -6.474000 -1.499845 -1.021535
      ESP Fit Center  178 is at  -6.474000 -1.499845 -0.721535
      ESP Fit Center  179 is at  -6.474000 -1.499845 -0.421535
      ESP Fit Center  180 is at  -6.474000 -1.499845 -0.121535
      ESP Fit Center  181 is at  -6.474000 -1.499845  0.178465
      ESP Fit Center  182 is at  -6.474000 -1.499845  0.478465
      ESP Fit Center  183 is at  -6.474000 -1.499845  0.778465
      ESP Fit Center  184 is at  -6.474000 -1.499845  1.078465
      ESP Fit Center  185 is at  -6.474000 -1.499845  1.378465
      ESP Fit Center  186 is at  -6.474000 -1.499845  1.678465
      ESP Fit Center  187 is at  -6.474000 -1.199845 -1.021535
      ESP Fit Center  188 is at  -6.474000 -1.199845 -0.721535
      ESP Fit Center  189 is at  -6.474000 -1.199845 -0.421535
      ESP Fit Center  190 is at  -6.474000 -1.199845 -0.121535
      ESP Fit Center  191 is at  -6.474000 -1.199845  0.178465
      ESP Fit Center  192 is at  -6.474000 -1.199845  0.478465
      ESP Fit Center  193 is at  -6.474000 -1.199845  0.778465
      ESP Fit Center  194 is at  -6.474000 -1.199845  1.078465
      ESP Fit Center  195 is at  -6.474000 -1.199845  1.378465
      ESP Fit Center  196 is at  -6.474000 -0.899845 -0.721535
      ESP Fit Center  197 is at  -6.474000 -0.899845 -0.421535
      ESP Fit Center  198 is at  -6.474000 -0.899845 -0.121535
      ESP Fit Center  199 is at  -6.474000 -0.899845  0.178465
      ESP Fit Center  200 is at  -6.474000 -0.899845  0.478465
      ESP Fit Center  201 is at  -6.474000 -0.899845  0.778465
      ESP Fit Center  202 is at  -6.474000 -0.899845  1.078465
      ESP Fit Center  203 is at  -6.474000 -0.599845 -0.421535
      ESP Fit Center  204 is at  -6.474000 -0.599845 -0.121535
      ESP Fit Center  205 is at  -6.474000 -0.599845  0.178465
      ESP Fit Center  206 is at  -6.474000 -0.599845  0.478465
      ESP Fit Center  207 is at  -6.474000 -0.599845  0.778465
      ESP Fit Center  208 is at  -6.174000 -4.199845 -1.921535
      ESP Fit Center  209 is at  -6.174000 -4.199845 -1.621535
      ESP Fit Center  210 is at  -6.174000 -4.199845 -1.321535
      ESP Fit Center  211 is at  -6.174000 -4.199845 -1.021535
      ESP Fit Center  212 is at  -6.174000 -3.899845 -2.521535
      ESP Fit Center  213 is at  -6.174000 -3.899845 -2.221535
      ESP Fit Center  214 is at  -6.174000 -3.899845 -1.921535
      ESP Fit Center  215 is at  -6.174000 -3.899845 -1.621535
      ESP Fit Center  216 is at  -6.174000 -3.899845 -1.321535
      ESP Fit Center  217 is at  -6.174000 -3.899845 -1.021535
      ESP Fit Center  218 is at  -6.174000 -3.899845 -0.721535
      ESP Fit Center  219 is at  -6.174000 -3.899845 -0.421535
      ESP Fit Center  220 is at  -6.174000 -3.899845 -0.121535
      ESP Fit Center  221 is at  -6.174000 -3.899845  0.178465
      ESP Fit Center  222 is at  -6.174000 -3.899845  0.478465
      ESP Fit Center  223 is at  -6.174000 -3.899845  0.778465
      ESP Fit Center  224 is at  -6.174000 -3.599845 -2.821535
      ESP Fit Center  225 is at  -6.174000 -3.599845 -2.521535
      ESP Fit Center  226 is at  -6.174000 -3.599845 -2.221535
      ESP Fit Center  227 is at  -6.174000 -3.599845 -1.921535
      ESP Fit Center  228 is at  -6.174000 -3.599845 -1.621535
      ESP Fit Center  229 is at  -6.174000 -3.599845 -1.321535
      ESP Fit Center  230 is at  -6.174000 -3.599845 -1.021535
      ESP Fit Center  231 is at  -6.174000 -3.599845 -0.721535
      ESP Fit Center  232 is at  -6.174000 -3.599845 -0.421535
      ESP Fit Center  233 is at  -6.174000 -3.599845 -0.121535
      ESP Fit Center  234 is at  -6.174000 -3.599845  0.178465
      ESP Fit Center  235 is at  -6.174000 -3.599845  0.478465
      ESP Fit Center  236 is at  -6.174000 -3.599845  0.778465
      ESP Fit Center  237 is at  -6.174000 -3.599845  1.078465
      ESP Fit Center  238 is at  -6.174000 -3.599845  1.378465
      ESP Fit Center  239 is at  -6.174000 -3.299845 -2.821535
      ESP Fit Center  240 is at  -6.174000 -3.299845 -2.521535
      ESP Fit Center  241 is at  -6.174000 -3.299845 -2.221535
      ESP Fit Center  242 is at  -6.174000 -3.299845 -1.921535
      ESP Fit Center  243 is at  -6.174000 -3.299845 -1.621535
      ESP Fit Center  244 is at  -6.174000 -3.299845 -1.321535
      ESP Fit Center  245 is at  -6.174000 -3.299845 -1.021535
      ESP Fit Center  246 is at  -6.174000 -3.299845 -0.721535
      ESP Fit Center  247 is at  -6.174000 -3.299845 -0.421535
      ESP Fit Center  248 is at  -6.174000 -3.299845 -0.121535
      ESP Fit Center  249 is at  -6.174000 -3.299845  0.178465
      ESP Fit Center  250 is at  -6.174000 -3.299845  0.478465
      ESP Fit Center  251 is at  -6.174000 -3.299845  0.778465
      ESP Fit Center  252 is at  -6.174000 -3.299845  1.078465
      ESP Fit Center  253 is at  -6.174000 -3.299845  1.378465
      ESP Fit Center  254 is at  -6.174000 -3.299845  1.678465
      ESP Fit Center  255 is at  -6.174000 -2.999845 -3.121535
      ESP Fit Center  256 is at  -6.174000 -2.999845 -2.821535
      ESP Fit Center  257 is at  -6.174000 -2.999845 -2.521535
      ESP Fit Center  258 is at  -6.174000 -2.999845 -2.221535
      ESP Fit Center  259 is at  -6.174000 -2.999845 -1.921535
      ESP Fit Center  260 is at  -6.174000 -2.999845 -1.621535
      ESP Fit Center  261 is at  -6.174000 -2.999845 -1.321535
      ESP Fit Center  262 is at  -6.174000 -2.999845 -1.021535
      ESP Fit Center  263 is at  -6.174000 -2.999845 -0.721535
      ESP Fit Center  264 is at  -6.174000 -2.999845 -0.421535
      ESP Fit Center  265 is at  -6.174000 -2.999845 -0.121535
      ESP Fit Center  266 is at  -6.174000 -2.999845  0.178465
      ESP Fit Center  267 is at  -6.174000 -2.999845  0.478465
      ESP Fit Center  268 is at  -6.174000 -2.999845  0.778465
      ESP Fit Center  269 is at  -6.174000 -2.999845  1.078465
[...]
 **** Fit       0.247669
 **** Fit       0.245920
 **** Fit       0.242982
 **** Fit       0.238988
 **** Fit       0.233843
 **** Fit       0.227493
 **** Fit       0.220085
 **** Fit       0.211948
 **** Fit       0.203471
 **** Fit       0.194993
 **** Fit       0.193192
 **** Fit       0.201157
 **** Fit       0.209409
 **** Fit       0.217611
 **** Fit       0.225209
 **** Fit       0.231501
 **** Fit       0.235867
 **** Fit       0.238046
 **** Fit       0.238233
 **** Fit       0.236868
 **** Fit       0.234318
 **** Fit       0.230728
 **** Fit       0.226089
 **** Fit       0.220409
 **** Fit       0.213815
 **** Fit       0.206560
 **** Fit       0.198946
 **** Fit       0.189726
 **** Fit       0.196744
 **** Fit       0.203849
 **** Fit       0.210762
 **** Fit       0.217073
 **** Fit       0.222295
 **** Fit       0.226005
 **** Fit       0.228009
 **** Fit       0.228390
 **** Fit       0.227396
 **** Fit       0.225265
 **** Fit       0.222127
 **** Fit       0.218024
 **** Fit       0.213007
 **** Fit       0.207194
 **** Fit       0.200781
 **** Fit       0.192480
 **** Fit       0.198544
 **** Fit       0.204295
 **** Fit       0.209445
 **** Fit       0.213681
 **** Fit       0.216737
 **** Fit       0.218474
 **** Fit       0.218914
 **** Fit       0.218177
 **** Fit       0.216402
 **** Fit       0.213685
 **** Fit       0.210087
 **** Fit       0.205677
 **** Fit       0.200566
 **** Fit       0.177611
 **** Fit       0.183133
 **** Fit       0.188565
 **** Fit       0.193754
 **** Fit       0.198524
 **** Fit       0.202685
 **** Fit       0.206052
 **** Fit       0.208475
 **** Fit       0.209872
 **** Fit       0.210235
 **** Fit       0.209617
 **** Fit       0.208088
 **** Fit       0.175111
 **** Fit       0.180180
 **** Fit       0.185034
 **** Fit       0.189520
 **** Fit       0.193492
 **** Fit       0.196830
 **** Fit       0.199446
 **** Fit       0.201279
 **** Fit       0.202294
 **** Fit       0.202485
 **** Fit       0.167809
 **** Fit       0.172672
 **** Fit       0.177388
 **** Fit       0.181794
 **** Fit       0.185726
 **** Fit       0.189057
 **** Fit       0.191719
 **** Fit       0.193696
 **** Fit       0.194996
 **** Fit       0.195628
 **** Fit       0.165556
 **** Fit       0.170184
 **** Fit       0.174613
 **** Fit       0.178661
 **** Fit       0.182155
 **** Fit       0.184976
 **** Fit       0.187093
 **** Fit       0.188543
 **** Fit       0.189387
 **** Fit       0.189673
 **** Fit       0.158650
 **** Fit       0.163124
 **** Fit       0.167524
 **** Fit       0.171690
 **** Fit       0.175432
 **** Fit       0.178568
 **** Fit       0.180987
 **** Fit       0.182682
 **** Fit       0.183724
 **** Fit       0.184211
 **** Fit       0.184216
 **** Fit       0.183772
 **** Fit       0.156199
 **** Fit       0.160445
 **** Fit       0.164597
 **** Fit       0.168493
 **** Fit       0.171944
 **** Fit       0.174774
 **** Fit       0.176883
 **** Fit       0.178271
 **** Fit       0.179028
 **** Fit       0.179267
 **** Fit       0.179074
 **** Fit       0.178494
 **** Fit       0.157497
 **** Fit       0.161367
 **** Fit       0.164970
 **** Fit       0.168131
 **** Fit       0.170690
 **** Fit       0.172559
 **** Fit       0.173743
 **** Fit       0.174327
 **** Fit       0.174423
 **** Fit       0.174119
 **** Fit       0.154303
 **** Fit       0.157865
 **** Fit       0.161157
 **** Fit       0.164028
 **** Fit       0.166342
 **** Fit       0.168025
 **** Fit       0.169080
 **** Fit       0.169579
 **** Fit       0.169617
 **** Fit       0.169273
 **** Fit       0.154165
 **** Fit       0.157146
 **** Fit       0.159736
 **** Fit       0.161829
 **** Fit       0.163363
 **** Fit       0.164337
 **** Fit       0.164805
 **** Fit       0.164839
 **** Fit       0.153042
 **** Fit       0.155372
 **** Fit       0.157266
 **** Fit       0.158674
 **** Fit       0.159592
 **** Fit       0.160054
 **** Fit       0.183819
 **** Fit       0.186539
 **** Fit       0.188293
 **** Fit       0.188942
 **** Fit       0.188439
 **** Fit       0.186844
 **** Fit       0.187796
 **** Fit       0.191916
 **** Fit       0.195169
 **** Fit       0.197288
 **** Fit       0.198080
 **** Fit       0.197483
 **** Fit       0.195584
 **** Fit       0.192581
 **** Fit       0.188726
 **** Fit       0.189800
 **** Fit       0.195225
 **** Fit       0.200030
 **** Fit       0.203867
 **** Fit       0.206391
 **** Fit       0.207344
 **** Fit       0.206646
 **** Fit       0.204415
 **** Fit       0.200920
 **** Fit       0.196482
 **** Fit       0.191401
 **** Fit       0.189789
 **** Fit       0.196229
 **** Fit       0.202362
 **** Fit       0.207849
 **** Fit       0.212273
 **** Fit       0.215207
 **** Fit       0.216327
 **** Fit       0.215534
 **** Fit       0.212985
 **** Fit       0.209017
 **** Fit       0.204020
 **** Fit       0.198344
 **** Fit       0.195079
 **** Fit       0.202148
 **** Fit       0.208919
 **** Fit       0.215009
 **** Fit       0.219947
 **** Fit       0.223239
 **** Fit       0.224512
 **** Fit       0.223654
 **** Fit       0.220855
 **** Fit       0.216510
 **** Fit       0.211054
 **** Fit       0.204869
 **** Fit       0.198245
 **** Fit       0.199759
 **** Fit       0.207360
 **** Fit       0.214639
 **** Fit       0.221181
 **** Fit       0.226479
 **** Fit       0.230013
 **** Fit       0.231396
 **** Fit       0.230522
 **** Fit       0.227602
 **** Fit       0.223046
 **** Fit       0.217301
 **** Fit       0.210747
 **** Fit       0.203688
 **** Fit       0.203709
 **** Fit       0.211725
 **** Fit       0.219362
 **** Fit       0.226169
 **** Fit       0.231629
 **** Fit       0.235243
 **** Fit       0.236667
 **** Fit       0.235825
 **** Fit       0.232930
 **** Fit       0.228360
 **** Fit       0.222522
 **** Fit       0.215766
 **** Fit       0.208398
 **** Fit       0.200687
 **** Fit       0.198447
 **** Fit       0.206839
 **** Fit       0.215168
 **** Fit       0.223032
 **** Fit       0.229940
 **** Fit       0.235380
 **** Fit       0.238915
 **** Fit       0.240291
 **** Fit       0.239493
 **** Fit       0.236725
 **** Fit       0.232299
 **** Fit       0.226535
 **** Fit       0.219729
 **** Fit       0.212177
 **** Fit       0.204184
 **** Fit       0.196037
 **** Fit       0.200417
 **** Fit       0.209066
 **** Fit       0.217622
 **** Fit       0.225624
 **** Fit       0.232533
 **** Fit       0.237836
 **** Fit       0.241170
 **** Fit       0.242401
 **** Fit       0.241604
 **** Fit       0.238982
 **** Fit       0.234768
 **** Fit       0.229178
 **** Fit       0.222435
 **** Fit       0.214820
 **** Fit       0.206664
 **** Fit       0.198298
 **** Fit       0.192930
 **** Fit       0.201479
 **** Fit       0.210279
 **** Fit       0.218971
 **** Fit       0.227043
 **** Fit       0.233896
 **** Fit       0.239005
 **** Fit       0.242070
 **** Fit       0.243077
 **** Fit       0.242205
 **** Fit       0.239678
 **** Fit       0.235664
 **** Fit       0.230282
 **** Fit       0.223683
 **** Fit       0.216123
 **** Fit       0.207945
 **** Fit       0.199511
 **** Fit       0.191126
 **** Fit       0.193009
 **** Fit       0.201543
 **** Fit       0.210342
 **** Fit       0.219033
 **** Fit       0.227067
 **** Fit       0.233801
 **** Fit       0.238688
 **** Fit       0.241467
 **** Fit       0.242220
 **** Fit       0.241222
 **** Fit       0.238728
 **** Fit       0.234872
 **** Fit       0.229705
 **** Fit       0.223321
 **** Fit       0.215943
 **** Fit       0.207907
 **** Fit       0.199578
 **** Fit       0.191271
 **** Fit       0.192227
 **** Fit       0.200564
 **** Fit       0.209158
 **** Fit       0.217640
 **** Fit       0.225455
 **** Fit       0.231954
 **** Fit       0.236582
 **** Fit       0.239103
 **** Fit       0.239646
 **** Fit       0.238540
 **** Fit       0.236067
 **** Fit       0.232352
 **** Fit       0.227418
 **** Fit       0.221324
 **** Fit       0.214261
 **** Fit       0.206537
 **** Fit       0.198495
 **** Fit       0.190438
 **** Fit       0.190643
 **** Fit       0.198589
 **** Fit       0.206750
 **** Fit       0.214775
 **** Fit       0.222143
 **** Fit       0.228243
 **** Fit       0.232556
 **** Fit       0.234862
 **** Fit       0.235293
 **** Fit       0.234170
 **** Fit       0.231773
 **** Fit       0.228231
 **** Fit       0.223573
 **** Fit       0.217850
 **** Fit       0.211222
 **** Fit       0.203956
 **** Fit       0.196357
 **** Fit       0.188395
 **** Fit       0.195785
 **** Fit       0.203313
 **** Fit       0.210662
 **** Fit       0.217372
 **** Fit       0.222916
 **** Fit       0.226848
 **** Fit       0.228972
 **** Fit       0.229385
 **** Fit       0.228351
 **** Fit       0.226117
 **** Fit       0.222815
 **** Fit       0.218492
 **** Fit       0.213208
 **** Fit       0.207102
 **** Fit       0.200395
 **** Fit       0.193347
 **** Fit       0.192413
 **** Fit       0.199184
 **** Fit       0.205720
 **** Fit       0.211642
 **** Fit       0.216529
 **** Fit       0.220027
 **** Fit       0.221969
 **** Fit       0.222407
 **** Fit       0.221528
 **** Fit       0.219526
 **** Fit       0.216523
 **** Fit       0.212584
 **** Fit       0.207780
 **** Fit       0.202236
 **** Fit       0.196134
 **** Fit       0.188758
 **** Fit       0.194740
 **** Fit       0.200428
 **** Fit       0.205529
 **** Fit       0.209727
 **** Fit       0.212759
 **** Fit       0.214492
 **** Fit       0.214942
 **** Fit       0.214223
 **** Fit       0.212471
 **** Fit       0.209789
 **** Fit       0.206251
 **** Fit       0.201933
 **** Fit       0.196948
 **** Fit       0.190300
 **** Fit       0.195185
 **** Fit       0.199505
 **** Fit       0.203035
 **** Fit       0.205595
 **** Fit       0.207083
 **** Fit       0.207494
 **** Fit       0.206891
 **** Fit       0.205360
 **** Fit       0.193855
 **** Fit       0.196772
 **** Fit       0.198870
 **** Fit       0.200084
 **** Fit       0.200400
 **** Fit       0.178102
 **** Fit       0.182108
 **** Fit       0.185671
 **** Fit       0.188681
 **** Fit       0.170936
 **** Fit       0.174857
 **** Fit       0.178394
 **** Fit       0.181448
 **** Fit       0.183944
 **** Fit       0.185840
 **** Fit       0.164204
 **** Fit       0.168094
 **** Fit       0.171672
 **** Fit       0.174823
 **** Fit       0.177457
 **** Fit       0.179529
 **** Fit       0.181026
 **** Fit       0.181961
 **** Fit       0.161538
 **** Fit       0.165161
 **** Fit       0.168443
 **** Fit       0.171270
 **** Fit       0.173563
 **** Fit       0.175293
 **** Fit       0.176471
 **** Fit       0.177132
 **** Fit       0.158700
 **** Fit       0.162068
 **** Fit       0.165082
 **** Fit       0.167632
 **** Fit       0.169649
 **** Fit       0.171114
 **** Fit       0.172051
 **** Fit       0.172508
 **** Fit       0.155668
 **** Fit       0.158784
 **** Fit       0.161545
 **** Fit       0.163854
 **** Fit       0.165648
 **** Fit       0.166915
 **** Fit       0.167683
 **** Fit       0.168001
 **** Fit       0.155321
 **** Fit       0.157842
 **** Fit       0.159936
 **** Fit       0.161549
 **** Fit       0.162671
 **** Fit       0.163327
 **** Fit       0.154019
 **** Fit       0.155920
 **** Fit       0.157384
 **** Fit       0.158398
 **** Fit       0.184737
 **** Fit       0.186418
 **** Fit       0.187059
 **** Fit       0.186618
 **** Fit       0.185144
 **** Fit       0.188847
 **** Fit       0.191837
 **** Fit       0.193785
 **** Fit       0.194537
 **** Fit       0.194043
 **** Fit       0.192367
 **** Fit       0.189667
 **** Fit       0.190982
 **** Fit       0.195252
 **** Fit       0.198622
 **** Fit       0.200832
 **** Fit       0.201697
 **** Fit       0.201157
 **** Fit       0.199295
 **** Fit       0.196298
 **** Fit       0.192404
 **** Fit       0.191088
 **** Fit       0.196429
 **** Fit       0.201107
 **** Fit       0.204811
 **** Fit       0.207250
 **** Fit       0.208217
 **** Fit       0.207650
 **** Fit       0.205641
 **** Fit       0.202403
 **** Fit       0.198198
 **** Fit       0.195486
 **** Fit       0.201196
 **** Fit       0.206193
 **** Fit       0.210148
 **** Fit       0.212754
 **** Fit       0.213799
 **** Fit       0.213224
 **** Fit       0.211131
 **** Fit       0.207741
 **** Fit       0.203319
 **** Fit       0.198130
 **** Fit       0.199163
 **** Fit       0.205145
 **** Fit       0.210355
 **** Fit       0.214455
 **** Fit       0.217146
 **** Fit       0.218231
 **** Fit       0.217667
 **** Fit       0.215557
 **** Fit       0.212112
 **** Fit       0.207582
 **** Fit       0.202221
 **** Fit       0.202033
 **** Fit       0.208192
 **** Fit       0.213513
 **** Fit       0.217655
 **** Fit       0.220346
 **** Fit       0.221423
 **** Fit       0.220870
 **** Fit       0.218792
 **** Fit       0.215375
 **** Fit       0.210836
 **** Fit       0.205402
 **** Fit       0.199305
 **** Fit       0.197222
 **** Fit       0.204022
 **** Fit       0.210276
 **** Fit       0.215622
 **** Fit       0.219726
 **** Fit       0.222342
 **** Fit       0.223362
 **** Fit       0.222802
 **** Fit       0.220774
 **** Fit       0.217433
 **** Fit       0.212955
 **** Fit       0.207533
 **** Fit       0.201388
 **** Fit       0.194758
 **** Fit       0.191101
 **** Fit       0.198193
 **** Fit       0.205050
 **** Fit       0.211319
 **** Fit       0.216623
 **** Fit       0.220627
 **** Fit       0.223119
 **** Fit       0.224038
 **** Fit       0.223444
 **** Fit       0.221457
 **** Fit       0.218209
 **** Fit       0.213837
 **** Fit       0.208499
 **** Fit       0.202396
 **** Fit       0.195767
 **** Fit       0.191172
 **** Fit       0.198224
 **** Fit       0.205027
 **** Fit       0.211221
 **** Fit       0.216412
 **** Fit       0.220271
 **** Fit       0.222610
 **** Fit       0.223408
 **** Fit       0.222761
 **** Fit       0.220804
 **** Fit       0.217655
 **** Fit       0.213420
 **** Fit       0.208227
 **** Fit       0.202258
 **** Fit       0.195741
 **** Fit       0.190405
 **** Fit       0.197280
 **** Fit       0.203898
 **** Fit       0.209900
 **** Fit       0.214896
 **** Fit       0.218567
 **** Fit       0.220741
 **** Fit       0.221424
 **** Fit       0.220734
 **** Fit       0.218815
 **** Fit       0.215777
 **** Fit       0.211712
 **** Fit       0.206726
 **** Fit       0.200979
 **** Fit       0.194684
 **** Fit       0.188847
 **** Fit       0.195405
 **** Fit       0.201694
 **** Fit       0.207374
 **** Fit       0.212082
 **** Fit       0.215517
 **** Fit       0.217526
 **** Fit       0.218122
 **** Fit       0.217423
 **** Fit       0.215572
 **** Fit       0.212678
 **** Fit       0.208822
 **** Fit       0.204102
 **** Fit       0.198659
 **** Fit       0.192681
 **** Fit       0.192734
 **** Fit       0.198567
 **** Fit       0.203809
 **** Fit       0.208140
 **** Fit       0.211295
 **** Fit       0.213139
 **** Fit       0.213676
 **** Fit       0.213011
 **** Fit       0.211270
 **** Fit       0.208557
 **** Fit       0.204954
 **** Fit       0.200549
 **** Fit       0.195470
 **** Fit       0.189482
 **** Fit       0.194771
 **** Fit       0.199496
 **** Fit       0.203387
 **** Fit       0.206227
 **** Fit       0.207895
 **** Fit       0.208390
 **** Fit       0.207786
 **** Fit       0.206189
 **** Fit       0.203690
 **** Fit       0.200369
 **** Fit       0.190601
 **** Fit       0.194775
 **** Fit       0.198198
 **** Fit       0.200699
 **** Fit       0.202178
 **** Fit       0.202623
 **** Fit       0.202085
 **** Fit       0.192907
 **** Fit       0.195061
 **** Fit       0.196334
 **** Fit       0.196710
 **** Fit       0.186747
 **** Fit       0.188463
 **** Fit       0.189145
 **** Fit       0.188755
 **** Fit       0.191830
 **** Fit       0.193702
 **** Fit       0.194456
 **** Fit       0.194052
 **** Fit       0.192539
 **** Fit       0.193193
 **** Fit       0.196240
 **** Fit       0.198233
 **** Fit       0.199044
 **** Fit       0.198635
 **** Fit       0.197060
 **** Fit       0.194447
 **** Fit       0.196676
 **** Fit       0.199842
 **** Fit       0.201909
 **** Fit       0.202756
 **** Fit       0.202349
 **** Fit       0.200745
 **** Fit       0.198071
 **** Fit       0.199326
 **** Fit       0.202548
 **** Fit       0.204640
 **** Fit       0.205493
 **** Fit       0.205089
 **** Fit       0.203484
 **** Fit       0.196883
 **** Fit       0.201084
 **** Fit       0.204304
 **** Fit       0.206374
 **** Fit       0.207206
 **** Fit       0.206796
 **** Fit       0.205205
 **** Fit       0.192769
 **** Fit       0.197727
 **** Fit       0.201901
 **** Fit       0.205069
 **** Fit       0.207078
 **** Fit       0.207863
 **** Fit       0.207436
 **** Fit       0.203244
 **** Fit       0.199692
 **** Fit       0.192755
 **** Fit       0.197640
 **** Fit       0.201727
 **** Fit       0.204800
 **** Fit       0.206721
 **** Fit       0.207442
 **** Fit       0.206992
 **** Fit       0.202886
 **** Fit       0.199422
 **** Fit       0.191872
 **** Fit       0.196605
 **** Fit       0.200544
 **** Fit       0.203481
 **** Fit       0.205293
 **** Fit       0.205945
 **** Fit       0.205476
 **** Fit       0.190162
 **** Fit       0.194662
 **** Fit       0.198390
 **** Fit       0.201156
 **** Fit       0.202844
 **** Fit       0.203430
 **** Fit       0.202955
 **** Fit       0.191930
 **** Fit       0.195392
 **** Fit       0.197952
 **** Fit       0.199506
 **** Fit       0.200032
 **** Fit       0.199568
 **** Fit       0.191748
 **** Fit       0.194075
 **** Fit       0.195484
 **** Fit       0.195953
 -----------------------------------------------------------------
 Leave Link  602 at Wed May 18 23:24:41 2016, MaxMem=  1073741824 cpu:        10.2

 Test job not archived.
 1\1\GINC-E09\SP\RHF\6-31G(d)\C8H21N3O2(2+)\WISE\18-May-2016\0\\# HF/6-
 31G* scf=tight iop(6/33=2) pop=chelpg\\Title Card Required\\2,1\N\H,1,
 1.01253331\H,1,1.01841823,2,106.62479013\H,1,1.01061945,2,107.40766572
 ,3,-117.40701444,0\C,1,1.5087198,4,113.45492438,2,124.46750108,0\H,5,1
 .08123234,1,107.28950776,4,-76.48387357,0\C,5,1.5394762,1,108.04100482
 ,4,44.23682062,0\H,7,1.08472771,5,108.09875061,1,-60.08908561,0\H,7,1.
 08555923,5,107.9858233,1,56.0288492,0\C,7,1.53795024,5,113.45106917,1,
 177.34711215,0\H,10,1.08532301,7,108.40808501,5,-60.82571286,0\H,10,1.
 08556838,7,111.10051435,5,56.47760036,0\C,10,1.54541654,7,114.06651471
 ,5,177.88296703,0\H,13,1.08988109,10,110.0075933,7,28.5943774,0\C,13,1
 .53142034,10,109.24378733,7,148.4360101,0\H,15,1.07972288,13,112.81516
 974,10,-70.43835801,0\H,15,1.08036054,13,110.63479872,10,52.9777018,0\
 N,15,1.50295997,13,109.24681516,10,169.44663426,0\H,18,1.01138256,15,1
 12.49708062,13,69.75655415,0\H,18,1.01168518,15,112.11668371,13,-169.2
 5546312,0\H,18,1.01400628,15,108.59531194,13,-49.12037007,0\O,13,1.394
 35841,10,114.45021215,7,-95.67113538,0\C,22,1.41483582,13,119.0298636,
 10,73.56651181,0\H,23,1.08490016,22,110.84761642,13,47.94668318,0\H,23
 ,1.07816825,22,106.73040417,13,167.05090487,0\H,23,1.08248338,22,110.9
 5051417,13,-74.7300425,0\C,5,1.54064842,1,103.17865314,7,118.90749804,
 0\O,27,1.2041039,5,115.86555758,1,-40.26636486,0\N,27,1.32382077,5,117
 .70190067,1,140.02861092,0\H,29,0.99577878,27,119.53263225,5,-4.175937
 97,0\C,29,1.46621612,27,122.45193608,5,-179.90286073,0\H,31,1.08151127
 ,29,110.79365721,27,-91.63902599,0\H,31,1.07811696,29,109.15544372,27,
 28.79766845,0\H,31,1.07939096,29,108.50179172,27,148.10942402,0\\Versi
 on=AM64L-G09RevD.01\State=1-A\HF=-627.7291061\RMSD=7.209e-09\Dipole=-1
 .4665718,0.7765591,-1.9838283\Quadrupole=-31.8853585,-7.8359503,39.721
 3087,2.3331159,19.9335324,19.073717\PG=C01 [X(C8H21N3O2)]\\@


 MISERY NO LONGER LOVES COMPANY.  NOWADAYS IT INSISTS ON IT.

                                              -- BAKER'S LAW
 Job cpu time:       0 days  0 hours  3 minutes 13.3 seconds.
 File lengths (MBytes):  RWF=     22 Int=      0 D2E=      0 Chk=      3 Scr=      1
 Normal termination of Gaussian 09 at Wed May 18 23:24:41 2016.
