 Entering Gaussian System, Link 0=/programs/g09/g09
 Input=/scratch2/Wise/temp/temp_05162016/tyrosine_OCH3_all_opt.com
 Output=/scratch2/Wise/temp/temp_05162016/tyrosine_OCH3_all_opt.log
 Initial command:
 /programs/g09/l1.exe "/tmp/Wise/tyrosine_OCH3_all_opt/Gau-16384.inp" -scrdir="/tmp/Wise/tyrosine_OCH3_all_opt/"
 Entering Link 1 = /programs/g09/l1.exe PID=     16385.
  
 Copyright (c) 1988,1990,1992,1993,1995,1998,2003,2009,2013,
            Gaussian, Inc.  All Rights Reserved.
  
 This is part of the Gaussian(R) 09 program.  It is based on
 the Gaussian(R) 03 system (copyright 2003, Gaussian, Inc.),
 the Gaussian(R) 98 system (copyright 1998, Gaussian, Inc.),
 the Gaussian(R) 94 system (copyright 1995, Gaussian, Inc.),
 the Gaussian 92(TM) system (copyright 1992, Gaussian, Inc.),
 the Gaussian 90(TM) system (copyright 1990, Gaussian, Inc.),
 the Gaussian 88(TM) system (copyright 1988, Gaussian, Inc.),
 the Gaussian 86(TM) system (copyright 1986, Carnegie Mellon
 University), and the Gaussian 82(TM) system (copyright 1983,
 Carnegie Mellon University). Gaussian is a federally registered
 trademark of Gaussian, Inc.
  
 This software contains proprietary and confidential information,
 including trade secrets, belonging to Gaussian, Inc.
  
 This software is provided under written license and may be
 used, copied, transmitted, or stored only in accord with that
 written license.
  
 The following legend is applicable only to US Government
 contracts under FAR:
  
                    RESTRICTED RIGHTS LEGEND
  
 Use, reproduction and disclosure by the US Government is
 subject to restrictions as set forth in subparagraphs (a)
 and (c) of the Commercial Computer Software - Restricted
 Rights clause in FAR 52.227-19.
  
 Gaussian, Inc.
 340 Quinnipiac St., Bldg. 40, Wallingford CT 06492
  
  
 ---------------------------------------------------------------
 Warning -- This program may not be used in any manner that
 competes with the business of Gaussian, Inc. or will provide
 assistance to any competitor of Gaussian, Inc.  The licensee
 of this program is prohibited from giving any competitor of
 Gaussian, Inc. access to this program.  By using this program,
 the user acknowledges that Gaussian, Inc. is engaged in the
 business of creating and licensing software in the field of
 computational chemistry and represents and warrants to the
 licensee that it is not a competitor of Gaussian, Inc. and that
 it will not use this program in any manner prohibited above.
 ---------------------------------------------------------------
  

 Cite this work as:
 Gaussian 09, Revision D.01,
 M. J. Frisch, G. W. Trucks, H. B. Schlegel, G. E. Scuseria, 
 M. A. Robb, J. R. Cheeseman, G. Scalmani, V. Barone, B. Mennucci, 
 G. A. Petersson, H. Nakatsuji, M. Caricato, X. Li, H. P. Hratchian, 
 A. F. Izmaylov, J. Bloino, G. Zheng, J. L. Sonnenberg, M. Hada, 
 M. Ehara, K. Toyota, R. Fukuda, J. Hasegawa, M. Ishida, T. Nakajima, 
 Y. Honda, O. Kitao, H. Nakai, T. Vreven, J. A. Montgomery, Jr., 
 J. E. Peralta, F. Ogliaro, M. Bearpark, J. J. Heyd, E. Brothers, 
 K. N. Kudin, V. N. Staroverov, T. Keith, R. Kobayashi, J. Normand, 
 K. Raghavachari, A. Rendell, J. C. Burant, S. S. Iyengar, J. Tomasi, 
 M. Cossi, N. Rega, J. M. Millam, M. Klene, J. E. Knox, J. B. Cross, 
 V. Bakken, C. Adamo, J. Jaramillo, R. Gomperts, R. E. Stratmann, 
 O. Yazyev, A. J. Austin, R. Cammi, C. Pomelli, J. W. Ochterski, 
 R. L. Martin, K. Morokuma, V. G. Zakrzewski, G. A. Voth, 
 P. Salvador, J. J. Dannenberg, S. Dapprich, A. D. Daniels, 
 O. Farkas, J. B. Foresman, J. V. Ortiz, J. Cioslowski, 
 and D. J. Fox, Gaussian, Inc., Wallingford CT, 2013.
 
 ******************************************
 Gaussian 09:  AM64L-G09RevD.01 24-Apr-2013
                15-May-2016 
 ******************************************
 %chk=tyrosine_OCH3_all_opt.chk
 %mem=8GB
 %nproc=8
 Will use up to    8 processors via shared memory.
 ----------------------------------
 # opt=z-matrix HF/6-31G* scf=tight
 ----------------------------------
 1/10=7,18=40,38=1/1,3;
 2/12=2,17=6,18=5,29=3,40=1/2;
 3/5=1,6=6,7=1,11=9,16=1,25=1,30=1,71=1/1,2,3;
 4//1;
 5/5=2,32=2,38=5/2;
 6/7=2,8=2,9=2,10=2,28=1/1;
 7/29=1/1,2,3,16;
 1/10=7,18=40/3(2);
 2/29=3/2;
 99//99;
 2/29=3/2;
 3/5=1,6=6,7=1,11=9,16=1,25=1,30=1,71=1/1,2,3;
 4/5=5,16=3,69=1/1;
 5/5=2,32=2,38=5/2;
 7//1,2,3,16;
 1/18=40/3(-5);
 2/29=3/2;
 6/7=2,8=2,9=2,10=2,19=2,28=1/1;
 99/9=1/99;
 -------------------
 Title Card Required
 -------------------
 Symbolic Z-matrix:
 Charge =  0 Multiplicity = 1
 C
 H                    1    B1
 H                    1    B2       2    A1
 H                    1    B3       2    A2       3    D1       0
 C                    1    B4       2     109.4712  3     119.99999  0
 O                    5    B5       1    A3       2     119.68339  0
 N                    5    B6       1    A4       6    D2       0
 H                    7    B7       5    A5       6    D3       0
 C                    7    B8       5    A6       6    D4       0
 H                    9    B9       7    A7       5    D5       0
 C                    9    B10      7    A8       5    D6       0
 H                    11   B11      9    A9       7    D7       0
 H                    11   B12      9    A10      7    D8       0
 C                    11   B13      9    A11      7    D9       0
 C                    14   B14      11   A12      9    D10      0
 H                    15   B15      14   A13      11   D11      0
 C                    15   B16      14   A14      11   D12      0
 H                    17   B17      15   A15      14   D13      0
 C                    17   B18      15   A16      14   D14      0
 O                    19   B19      17   A17      15   D15      0
 C                    20   B20      19   A18      17   D16      0
 H                    21   B21      20   A19      19   D17      0
 H                    21   B22      20   A20      19   D18      0
 H                    21   B23      20   A21      19   D19      0
 C                    19   B24      17   A22      15   D20      0
 H                    25   B25      19   A23      17   D21      0
 C                    25   B26      19   A24      17   D22      0
 H                    27   B27      25   A25      19   D23      0
 C                    9    B28      7    A26      5    D24      0
 O                    29   B29      9    A27      7    D25      0
 N                    29   B30      9    A28      7    D26      0
 H                    31   B31      29   A29      9    D27      0
 C                    31   B32      29   A30      9    D28      0
 H                    33   B33      31   A31      29   D29      0
 H                    33   B34      31   A32      29   D30      0
 H                    33   B35      31   A33      29   D31      0
       Variables:
  B1                    1.07                     
  B2                    1.07                     
  B3                    1.07                     
  B4                    1.54                     
  B5                    1.23004                  
  B6                    1.33515                  
  B7                    1.00949                  
  B8                    1.44898                  
  B9                    1.09038                  
  B10                   1.52484                  
  B11                   1.09013                  
  B12                   1.08979                  
  B13                   1.51034                  
  B14                   1.39927                  
  B15                   1.09026                  
  B16                   1.40028                  
  B17                   1.09004                  
  B18                   1.39985                  
  B19                   1.36004                  
  B20                   1.43                     
  B21                   1.07                     
  B22                   1.07                     
  B23                   1.07                     
  B24                   1.40008                  
  B25                   1.09049                  
  B26                   1.39939                  
  B27                   1.09055                  
  B28                   1.52145                  
  B29                   1.22928                  
  B30                   1.33496                  
  B31                   1.01018                  
  B32                   1.47                     
  B33                   1.07                     
  B34                   1.07                     
  B35                   1.07                     
  A1                  109.47125                  
  A2                  109.47122                  
  A3                  120.48927                  
  A4                  116.61417                  
  A5                  119.98353                  
  A6                  121.88957                  
  A7                  109.5417                   
  A8                  111.10815                  
  A9                  109.50853                  
  A10                 109.50944                  
  A11                 109.49011                  
  A12                 120.01713                  
  A13                 120.04033                  
  A14                 120.02154                  
  A15                 119.98765                  
  A16                 119.97156                  
  A17                 120.01669                  
  A18                 112.9533                   
  A19                 109.4712                   
  A20                 109.4712                   
  A21                 109.47123                  
  A22                 120.00555                  
  A23                 119.99202                  
  A24                 120.01273                  
  A25                 120.04371                  
  A26                 111.10855                  
  A27                 120.51056                  
  A28                 116.64838                  
  A29                 119.95943                  
  A30                 121.92804                  
  A31                 109.4712                   
  A32                 109.4712                   
  A33                 109.47123                  
  D1                 -120.00001                  
  D2                  180.                       
  D3                  180.                       
  D4                    0.                       
  D5                  -60.01073                  
  D6                   60.00448                  
  D7                   12.84164                  
  D8                  132.85837                  
  D9                 -107.1                      
  D10                -179.97829                  
  D11                  -0.04876                  
  D12                 179.98008                  
  D13                 179.97258                  
  D14                   0.00541                  
  D15                 179.9952                   
  D16                  -0.00565                  
  D17                  59.84714                  
  D18                 179.84715                  
  D19                 -60.15285                  
  D20                  -0.06028                  
  D21                -179.98912                  
  D22                   0.07851                  
  D23                 179.94886                  
  D24                 180.                       
  D25                   0.                       
  D26                 180.                       
  D27                   0.                       
  D28                 180.                       
  D29                 -81.43041                  
  D30                  38.56961                  
  D31                 158.5696                   
 
     9 tetrahedral angles replaced.
    9 tetrahedral angles replaced.

 GradGradGradGradGradGradGradGradGradGradGradGradGradGradGradGradGradGrad
 Berny optimization.
 Initialization pass.
                       ----------------------------
                       !    Initial Parameters    !
                       ! (Angstroms and Degrees)  !
 ----------------------                            ----------------------
 !      Name          Value   Derivative information (Atomic Units)     !
 ------------------------------------------------------------------------
 !       B1          1.07     estimate D2E/DX2                          !
 !       B2          1.07     estimate D2E/DX2                          !
 !       B3          1.07     estimate D2E/DX2                          !
 !       B4          1.54     estimate D2E/DX2                          !
 !       B5          1.23     estimate D2E/DX2                          !
 !       B6          1.3351   estimate D2E/DX2                          !
 !       B7          1.0095   estimate D2E/DX2                          !
 !       B8          1.449    estimate D2E/DX2                          !
 !       B9          1.0904   estimate D2E/DX2                          !
 !       B10         1.5248   estimate D2E/DX2                          !
 !       B11         1.0901   estimate D2E/DX2                          !
 !       B12         1.0898   estimate D2E/DX2                          !
 !       B13         1.5103   estimate D2E/DX2                          !
 !       B14         1.3993   estimate D2E/DX2                          !
 !       B15         1.0903   estimate D2E/DX2                          !
 !       B16         1.4003   estimate D2E/DX2                          !
 !       B17         1.09     estimate D2E/DX2                          !
 !       B18         1.3999   estimate D2E/DX2                          !
 !       B19         1.36     estimate D2E/DX2                          !
 !       B20         1.43     estimate D2E/DX2                          !
 !       B21         1.07     estimate D2E/DX2                          !
 !       B22         1.07     estimate D2E/DX2                          !
 !       B23         1.07     estimate D2E/DX2                          !
 !       B24         1.4001   estimate D2E/DX2                          !
 !       B25         1.0905   estimate D2E/DX2                          !
 !       B26         1.3994   estimate D2E/DX2                          !
 !       B27         1.0905   estimate D2E/DX2                          !
 !       B28         1.5215   estimate D2E/DX2                          !
 !       B29         1.2293   estimate D2E/DX2                          !
 !       B30         1.335    estimate D2E/DX2                          !
 !       B31         1.0102   estimate D2E/DX2                          !
 !       B32         1.47     estimate D2E/DX2                          !
 !       B33         1.07     estimate D2E/DX2                          !
 !       B34         1.07     estimate D2E/DX2                          !
 !       B35         1.07     estimate D2E/DX2                          !
 !       A1        109.4712   estimate D2E/DX2                          !
 !       A2        109.4712   estimate D2E/DX2                          !
 !       A3        120.4893   estimate D2E/DX2                          !
 !       A4        116.6142   estimate D2E/DX2                          !
 !       A5        119.9835   estimate D2E/DX2                          !
 !       A6        121.8896   estimate D2E/DX2                          !
 !       A7        109.5417   estimate D2E/DX2                          !
 !       A8        111.1081   estimate D2E/DX2                          !
 !       A9        109.5085   estimate D2E/DX2                          !
 !       A10       109.5094   estimate D2E/DX2                          !
 !       A11       109.4901   estimate D2E/DX2                          !
 !       A12       120.0171   estimate D2E/DX2                          !
 !       A13       120.0403   estimate D2E/DX2                          !
 !       A14       120.0215   estimate D2E/DX2                          !
 !       A15       119.9876   estimate D2E/DX2                          !
 !       A16       119.9716   estimate D2E/DX2                          !
 !       A17       120.0167   estimate D2E/DX2                          !
 !       A18       112.9533   estimate D2E/DX2                          !
 !       A19       109.4712   estimate D2E/DX2                          !
 !       A20       109.4712   estimate D2E/DX2                          !
 !       A21       109.4712   estimate D2E/DX2                          !
 !       A22       120.0055   estimate D2E/DX2                          !
 !       A23       119.992    estimate D2E/DX2                          !
 !       A24       120.0127   estimate D2E/DX2                          !
 !       A25       120.0437   estimate D2E/DX2                          !
 !       A26       111.1085   estimate D2E/DX2                          !
 !       A27       120.5106   estimate D2E/DX2                          !
 !       A28       116.6484   estimate D2E/DX2                          !
 !       A29       119.9594   estimate D2E/DX2                          !
 !       A30       121.928    estimate D2E/DX2                          !
 !       A31       109.4712   estimate D2E/DX2                          !
 !       A32       109.4712   estimate D2E/DX2                          !
 !       A33       109.4712   estimate D2E/DX2                          !
 !       D1       -120.0      estimate D2E/DX2                          !
 !       D2        180.0      estimate D2E/DX2                          !
 !       D3        180.0      estimate D2E/DX2                          !
 !       D4          0.0      estimate D2E/DX2                          !
 !       D5        -60.0107   estimate D2E/DX2                          !
 !       D6         60.0045   estimate D2E/DX2                          !
 !       D7         12.8416   estimate D2E/DX2                          !
 !       D8        132.8584   estimate D2E/DX2                          !
 !       D9       -107.1      estimate D2E/DX2                          !
 !       D10      -179.9783   estimate D2E/DX2                          !
 !       D11        -0.0488   estimate D2E/DX2                          !
 !       D12       179.9801   estimate D2E/DX2                          !
 !       D13       179.9726   estimate D2E/DX2                          !
 !       D14         0.0054   estimate D2E/DX2                          !
 !       D15       179.9952   estimate D2E/DX2                          !
 !       D16        -0.0056   estimate D2E/DX2                          !
 !       D17        59.8471   estimate D2E/DX2                          !
 !       D18       179.8472   estimate D2E/DX2                          !
 !       D19       -60.1529   estimate D2E/DX2                          !
 !       D20        -0.0603   estimate D2E/DX2                          !
 !       D21      -179.9891   estimate D2E/DX2                          !
 !       D22         0.0785   estimate D2E/DX2                          !
 !       D23       179.9489   estimate D2E/DX2                          !
 !       D24       180.0      estimate D2E/DX2                          !
 !       D25         0.0      estimate D2E/DX2                          !
 !       D26       180.0      estimate D2E/DX2                          !
 !       D27         0.0      estimate D2E/DX2                          !
 !       D28       180.0      estimate D2E/DX2                          !
 !       D29       -81.4304   estimate D2E/DX2                          !
 !       D30        38.5696   estimate D2E/DX2                          !
 !       D31       158.5696   estimate D2E/DX2                          !
 ------------------------------------------------------------------------
 Trust Radius=3.00D-01 FncErr=1.00D-07 GrdErr=1.00D-07
 Number of steps in this run=    109 maximum allowed number of steps=    198.
 GradGradGradGradGradGradGradGradGradGradGradGradGradGradGradGradGradGrad

 ---------------------------------------------------------------------------------------------------
                            Z-MATRIX (ANGSTROMS AND DEGREES)
   CD    Cent   Atom    N1       Length/X        N2       Alpha/Y        N3        Beta/Z          J
 ---------------------------------------------------------------------------------------------------
      1      1  C 
      2      2  H        1   1.070000(     1)
      3      3  H        1   1.070000(     2)      2  109.471(    36)
      4      4  H        1   1.070000(     3)      2  109.471(    37)      3 -120.000(    70)      0
      5      5  C        1   1.540000(     4)      2  109.471(    38)      3  120.000(    71)      0
      6      6  O        5   1.230037(     5)      1  120.489(    39)      2  119.683(    72)      0
      7      7  N        5   1.335150(     6)      1  116.614(    40)      6  180.000(    73)      0
      8      8  H        7   1.009495(     7)      5  119.984(    41)      6  180.000(    74)      0
      9      9  C        7   1.448979(     8)      5  121.890(    42)      6    0.000(    75)      0
     10     10  H        9   1.090380(     9)      7  109.542(    43)      5  -60.011(    76)      0
     11     11  C        9   1.524840(    10)      7  111.108(    44)      5   60.004(    77)      0
     12     12  H       11   1.090131(    11)      9  109.509(    45)      7   12.842(    78)      0
     13     13  H       11   1.089791(    12)      9  109.509(    46)      7  132.858(    79)      0
     14     14  C       11   1.510337(    13)      9  109.490(    47)      7 -107.100(    80)      0
     15     15  C       14   1.399270(    14)     11  120.017(    48)      9 -179.978(    81)      0
     16     16  H       15   1.090257(    15)     14  120.040(    49)     11   -0.049(    82)      0
     17     17  C       15   1.400279(    16)     14  120.022(    50)     11  179.980(    83)      0
     18     18  H       17   1.090039(    17)     15  119.988(    51)     14  179.973(    84)      0
     19     19  C       17   1.399851(    18)     15  119.972(    52)     14    0.005(    85)      0
     20     20  O       19   1.360044(    19)     17  120.017(    53)     15  179.995(    86)      0
     21     21  C       20   1.430000(    20)     19  112.953(    54)     17   -0.006(    87)      0
     22     22  H       21   1.070000(    21)     20  109.471(    55)     19   59.847(    88)      0
     23     23  H       21   1.070000(    22)     20  109.471(    56)     19  179.847(    89)      0
     24     24  H       21   1.070000(    23)     20  109.471(    57)     19  -60.153(    90)      0
     25     25  C       19   1.400078(    24)     17  120.006(    58)     15   -0.060(    91)      0
     26     26  H       25   1.090487(    25)     19  119.992(    59)     17 -179.989(    92)      0
     27     27  C       25   1.399390(    26)     19  120.013(    60)     17    0.079(    93)      0
     28     28  H       27   1.090549(    27)     25  120.044(    61)     19  179.949(    94)      0
     29     29  C        9   1.521455(    28)      7  111.109(    62)      5  180.000(    95)      0
     30     30  O       29   1.229276(    29)      9  120.511(    63)      7    0.000(    96)      0
     31     31  N       29   1.334963(    30)      9  116.648(    64)      7  180.000(    97)      0
     32     32  H       31   1.010177(    31)     29  119.959(    65)      9    0.000(    98)      0
     33     33  C       31   1.470000(    32)     29  121.928(    66)      9  180.000(    99)      0
     34     34  H       33   1.070000(    33)     31  109.471(    67)     29  -81.430(   100)      0
     35     35  H       33   1.070000(    34)     31  109.471(    68)     29   38.570(   101)      0
     36     36  H       33   1.070000(    35)     31  109.471(    69)     29  158.570(   102)      0
 ---------------------------------------------------------------------------------------------------
                         Z-Matrix orientation:                         
 ---------------------------------------------------------------------
 Center     Atomic      Atomic             Coordinates (Angstroms)
 Number     Number       Type             X           Y           Z
 ---------------------------------------------------------------------
      1          6           0        0.000000    0.000000    0.000000
      2          1           0        0.000000    0.000000    1.070000
      3          1           0        1.008806    0.000000   -0.356667
      4          1           0       -0.504403    0.873651   -0.356667
      5          6           0       -0.725963   -1.257405   -0.513333
      6          8           0       -1.730169   -1.155020   -1.216241
      7          7           0       -0.208335   -2.434930   -0.155394
      8          1           0        0.618159   -2.467725    0.423322
      9          6           0       -0.799257   -3.689921   -0.574141
     10          1           0       -1.823405   -3.751936   -0.205082
     11          6           0       -0.821640   -3.806153   -2.094380
     12          1           0       -0.188703   -3.031749   -2.528055
     13          1           0       -0.449264   -4.786779   -2.389938
     14          6           0       -2.237168   -3.634014   -2.592140
     15          6           0       -2.510263   -3.701526   -3.962840
     16          1           0       -1.701511   -3.877610   -4.672470
     17          6           0       -3.822670   -3.542359   -4.424397
     18          1           0       -4.034721   -3.594609   -5.492334
     19          6           0       -4.861507   -3.315530   -3.513931
     20          8           0       -6.136528   -3.160709   -3.961225
     21          6           0       -6.243965   -3.256916   -5.383935
     22          1           0       -5.899232   -4.218145   -5.703461
     23          1           0       -7.266114   -3.130110   -5.673816
     24          1           0       -5.646938   -2.494479   -5.839072
     25          6           0       -4.588393   -3.249128   -2.142356
     26          1           0       -5.397844   -3.072594   -1.433281
     27          6           0       -3.276685   -3.407844   -1.681355
     28          1           0       -3.063256   -3.355385   -0.613182
     29          6           0       -0.014465   -4.873929   -0.029116
     30          8           0        0.981316   -4.694516    0.668989
     31          7           0       -0.464801   -6.089182   -0.349246
     32          1           0       -1.288228   -6.186190   -0.926320
     33          6           0        0.204167   -7.313240    0.114504
     34          1           0        1.041103   -7.523813   -0.518028
     35          1           0        0.542837   -7.175496    1.120103
     36          1           0       -0.484504   -8.131391    0.078997
 ---------------------------------------------------------------------
                    Distance matrix (angstroms):
                    1          2          3          4          5
     1  C    0.000000
     2  H    1.070000   0.000000
     3  H    1.070000   1.747303   0.000000
     4  H    1.070000   1.747303   1.747303   0.000000
     5  C    1.540000   2.148263   2.148263   2.148263   0.000000
     6  O    2.409730   3.091028   3.094337   2.521285   1.230037
     7  N    2.448762   2.733840   2.729620   3.327894   1.335150
     8  H    2.578951   2.624877   2.617376   3.610169   2.036875
     9  C    3.818896   4.117952   4.114840   4.578256   2.434380
    10  H    4.176589   4.362071   4.703342   4.812360   2.742642
    11  C    4.421348   5.017489   4.566944   5.002085   3.000830
    12  H    3.951983   4.708833   3.916689   4.479592   2.737891
    13  H    5.369068   5.923365   5.401241   6.014790   4.006830
    14  C    4.993012   5.623366   5.360946   5.321547   3.500493
    15  C    5.975519   6.732919   6.252170   6.161186   4.588742
    16  H    6.305789   7.134912   6.403736   6.529449   5.011546
    17  C    6.836403   7.572946   7.241402   6.859918   5.486988
    18  H    7.704928   8.500848   8.045710   7.668349   6.418789
    19  C    6.853809   7.459183   7.444570   6.819231   5.508374
    20  O    7.958540   8.541679   8.604575   7.809592   6.692140
    21  C    8.864612   9.552375   9.406572   8.676265   7.626870
    22  H    9.226221   9.923379   9.700615   9.144330   7.903551
    23  H    9.735820  10.395819  10.322013   9.488040   8.538804
    24  H    8.497358   9.265290   8.976531   8.236913   7.355939
    25  C    6.016633   6.475293   6.713729   6.071653   4.641018
    26  H    6.374312   6.696564   7.186452   6.377909   5.095851
    27  C    5.017671   5.469920   5.633261   5.269872   3.534805
    28  H    4.584554   4.845126   5.282622   4.949573   3.142360
    29  C    4.874037   4.996343   4.990947   5.777716   3.717518
    30  O    4.842418   4.812720   4.805331   5.853530   4.015771
    31  N    6.116874   6.269644   6.264958   6.962949   4.841611
    32  H    6.386435   6.626747   6.623429   7.126026   4.977914
    33  C    7.316985   7.378220   7.372443   8.230994   6.158933
    34  H    7.613147   7.759735   7.525613   8.540025   6.510792
    35  H    7.282654   7.196175   7.340690   8.250232   6.269113
    36  H    8.146196   8.205873   8.278846   9.015597   6.903683
                    6          7          8          9         10
     6  O    0.000000
     7  N    2.253785   0.000000
     8  H    3.150556   1.009495   0.000000
     9  C    2.775718   1.448979   2.120793   0.000000
    10  H    2.788388   2.084568   2.829368   1.090380   0.000000
    11  C    2.936845   2.452766   3.194250   1.524840   2.139140
    12  H    2.760269   2.446650   3.111233   2.150290   2.930379
    13  H    4.025910   3.253064   3.798925   2.150049   2.780784
    14  C    2.880201   3.389941   4.313483   2.478515   2.425521
    15  C    3.825840   4.625990   5.526998   3.796177   3.820348
    16  H    4.399868   4.971406   5.773711   4.200666   4.470818
    17  C    4.513338   5.702123   6.661545   4.897680   4.673714
    18  H    5.435764   6.668509   7.610134   5.887778   5.733210
    19  C    4.444374   5.805793   6.800549   5.028360   4.513202
    20  O    5.565405   7.081990   8.082715   6.343411   5.749886
    21  C    6.493226   8.027585   9.024178   7.277805   6.826925
    22  H    6.848282   8.145380   9.114704   7.252495   6.860166
    23  H    7.376831   8.986017   9.988774   8.254714   7.740594
    24  H    6.205304   7.866774   8.858314   7.255935   6.924048
    25  C    3.662298   4.878099   5.856747   4.124458   3.413357
    26  H    4.144399   5.382436   6.324961   4.718709   3.840130
    27  C    2.771869   3.562287   4.525848   2.728212   2.099953
    28  H    2.642424   3.034366   3.926206   2.288914   1.364195
    29  C    4.264175   2.449948   2.528780   1.521455   2.135906
    30  O    4.840896   2.683394   2.269545   2.392702   3.085274
    31  N    5.167087   3.668366   3.858058   2.432877   2.707269
    32  H    5.058858   3.979000   4.391221   2.567972   2.594646
    33  C    6.590615   4.903153   4.872963   3.822241   4.110482
    34  H    6.980614   5.252554   5.160334   4.253093   4.746619
    35  H    6.846254   4.966298   4.759652   4.101331   4.367606
    36  H    7.204101   5.707966   5.780271   4.500257   4.588353
                   11         12         13         14         15
    11  C    0.000000
    12  H    1.090131   0.000000
    13  H    1.089791   1.779634   0.000000
    14  C    1.510337   2.136128   2.136904   0.000000
    15  C    2.520623   2.810134   2.810607   1.399270   0.000000
    16  H    2.725038   2.757279   2.757656   2.161953   1.090257
    17  C    3.808510   4.130685   4.131280   2.424744   1.400279
    18  H    4.681317   4.888314   4.888930   3.412312   2.162118
    19  C    4.310030   4.784097   4.784958   2.799693   2.424636
    20  O    5.670075   6.119415   6.120296   4.159738   3.666372
    21  C    6.365881   6.698727   6.699482   4.898034   4.019666
    22  H    6.243168   6.640849   6.403510   4.840685   3.844706
    23  H    7.402746   7.745659   7.745828   5.919539   5.086460
    24  H    6.247136   6.406545   6.645824   4.844340   3.849148
    25  C    3.808019   4.421911   4.422450   2.424603   2.799545
    26  H    4.681539   5.323096   5.323727   3.412919   3.890032
    27  C    2.521207   3.223970   3.224572   1.400456   2.424629
    28  H    2.724331   3.469083   3.469684   2.162483   3.412598
    29  C    2.461096   3.109450   2.402109   3.612048   4.803928
    30  O    3.417023   3.788777   3.378181   4.703007   5.884811
    31  N    2.895694   3.764483   2.420933   3.768250   4.789872
    32  H    2.691959   3.704728   2.191892   3.192029   4.109426
    33  C    4.269790   5.046645   3.616933   5.179068   6.085831
    34  H    4.446987   5.072600   3.635464   5.493591   6.252104
    35  H    4.852543   5.569097   4.360117   5.835347   6.872132
    36  H    4.852310   5.735030   4.157321   5.516630   6.329601
                   16         17         18         19         20
    16  H    0.000000
    17  C    2.161770   0.000000
    18  H    2.489203   1.090039   0.000000
    19  C    3.412290   1.399851   2.162299   0.000000
    20  O    4.548537   2.390423   2.636315   1.360044   0.000000
    21  C    4.639540   2.620087   2.237531   2.326272   1.430000
    22  H    4.335870   2.530770   1.977314   2.585659   2.051796
    23  H    5.703179   3.686231   3.269648   3.237533   2.051796
    24  H    4.340553   2.535214   1.982362   2.587915   2.051796
    25  C    3.889802   2.424877   3.412955   1.400078   2.390151
    26  H    4.980289   3.413008   4.313526   2.162355   2.635131
    27  C    3.413008   2.800085   3.890123   2.424565   3.665732
    28  H    4.313339   3.890634   4.980672   3.413157   4.548879
    29  C    5.039794   5.966071   6.902598   6.169794   7.475043
    30  O    6.032917   7.095656   8.020743   7.316898   8.628740
    31  N    5.011065   5.862461   6.739330   6.086000   7.334224
    32  H    4.419727   5.064562   5.925200   5.263530   6.470719
    33  C    6.192761   7.143989   7.951919   7.403261   8.605783
    34  H    6.170585   7.400540   8.120736   7.843844   9.078033
    35  H    7.033283   7.937180   8.803471   8.098182   9.303351
    36  H    6.492473   7.244524   8.014122   7.433694   8.542626
                   21         22         23         24         25
    21  C    0.000000
    22  H    1.070000   0.000000
    23  H    1.070000   1.747303   0.000000
    24  H    1.070000   1.747303   1.747303   0.000000
    25  C    3.639891   3.916473   4.433459   3.918637   0.000000
    26  H    4.044447   4.449507   4.634207   4.450534   1.090487
    27  C    4.747276   4.869464   5.650878   4.872263   1.399390
    28  H    5.734692   5.890506   6.582156   5.892919   2.162339
    29  C    8.372304   8.201142   9.353606   8.434579   5.294014
    30  O    9.534635   9.390260  10.521342   9.546139   6.404254
    31  N    8.171203   7.855026   9.130444   8.361496   5.318380
    32  H    7.280818   6.925001   8.222741   7.534070   4.582158
    33  C    9.394945   8.982194  10.334811   9.638514   6.676755
    34  H    9.744520   9.272778  10.718985   9.916532   7.252765
    35  H   10.184226   9.839065  11.113154  10.423788   7.238061
    36  H    9.315338   8.835700  10.202838   9.666904   6.753726
                   26         27         28         29         30
    26  H    0.000000
    27  C    2.161770   0.000000
    28  H    2.490550   1.090549   0.000000
    29  C    5.847842   3.939718   3.455753   0.000000
    30  O    6.909693   5.030926   4.449247   1.229276   0.000000
    31  N    5.883014   4.107405   3.780909   1.334963   2.252365
    32  H    5.180776   3.499035   3.355926   2.037026   3.149751
    33  C    7.194529   5.531144   5.183647   2.453297   2.787316
    34  H    7.881058   6.077649   5.850693   2.893985   3.068796
    35  H    7.658020   6.052447   5.531856   2.632205   2.559498
    36  H    7.212443   5.762552   5.471682   3.292975   3.782701
                   31         32         33         34         35
    31  N    0.000000
    32  H    1.010177   0.000000
    33  C    1.470000   2.140280   0.000000
    34  H    2.086720   2.716932   1.070000   0.000000
    35  H    2.086720   2.918796   1.070000   1.747303   0.000000
    36  H    2.086720   2.332475   1.070000   1.747303   1.747303
                   36
    36  H    0.000000
 Stoichiometry    C13H18N2O3
 Framework group  C1[X(C13H18N2O3)]
 Deg. of freedom   102
 Full point group                 C1      NOp   1
 Largest Abelian subgroup         C1      NOp   1
 Largest concise Abelian subgroup C1      NOp   1
                         Standard orientation:                         
 ---------------------------------------------------------------------
 Center     Atomic      Atomic             Coordinates (Angstroms)
 Number     Number       Type             X           Y           Z
 ---------------------------------------------------------------------
      1          6           0       -2.194763    3.816667    0.088839
      2          1           0       -2.855984    3.946186   -0.742372
      3          1           0       -2.756162    3.846723    0.999239
      4          1           0       -1.467797    4.601785    0.092010
      5          6           0       -1.481393    2.457016   -0.029697
      6          8           0       -0.255226    2.400397   -0.109085
      7          7           0       -2.259621    1.372179   -0.040429
      8          1           0       -3.262106    1.469759    0.027274
      9          6           0       -1.709036    0.036170   -0.147546
     10          1           0       -1.151615   -0.054894   -1.080240
     11          6           0       -0.767625   -0.264541    1.013684
     12          1           0       -0.887628    0.495561    1.785843
     13          1           0       -1.003384   -1.244095    1.429060
     14          6           0        0.659769   -0.257129    0.520116
     15          6           0        1.709517   -0.509707    1.410167
     16          1           0        1.497964   -0.711217    2.460548
     17          6           0        3.032904   -0.503269    0.952581
     18          1           0        3.850268   -0.699657    1.646506
     19          6           0        3.305377   -0.243911   -0.395779
     20          8           0        4.590402   -0.237336   -0.841187
     21          6           0        5.540110   -0.512591    0.191862
     22          1           0        5.343154   -1.477851    0.609453
     23          1           0        6.528179   -0.496340   -0.218448
     24          1           0        5.459616    0.230459    0.957563
     25          6           0        2.254927    0.007674   -1.286552
     26          1           0        2.467425    0.209513   -2.336918
     27          6           0        0.932484    0.001565   -0.828950
     28          1           0        0.113934    0.198289   -1.522184
     29          6           0       -2.810783   -1.013044   -0.136204
     30          8           0       -3.990147   -0.678642   -0.044580
     31          7           0       -2.424830   -2.287572   -0.229724
     32          1           0       -1.442921   -2.513233   -0.303131
     33          6           0       -3.391892   -3.394681   -0.229920
     34          1           0       -3.677497   -3.618959    0.776573
     35          1           0       -4.257543   -3.112010   -0.791743
     36          1           0       -2.944551   -4.258931   -0.674734
 ---------------------------------------------------------------------
 Rotational constants (GHZ):      0.6025820      0.2351591      0.1841916
 Standard basis: 6-31G(d) (6D, 7F)
 There are   306 symmetry adapted cartesian basis functions of A   symmetry.
 There are   306 symmetry adapted basis functions of A   symmetry.
   306 basis functions,   576 primitive gaussians,   306 cartesian basis functions
    67 alpha electrons       67 beta electrons
       nuclear repulsion energy      1333.3110430793 Hartrees.
 NAtoms=   36 NActive=   36 NUniq=   36 SFac= 1.00D+00 NAtFMM=   60 NAOKFM=F Big=F
 Integral buffers will be    131072 words long.
 Raffenetti 1 integral format.
 Two-electron integral symmetry is turned on.
 One-electron integrals computed using PRISM.
 NBasis=   306 RedAO= T EigKep=  4.30D-04  NBF=   306
 NBsUse=   306 1.00D-06 EigRej= -1.00D+00 NBFU=   306
 ExpMin= 1.61D-01 ExpMax= 5.48D+03 ExpMxC= 8.25D+02 IAcc=1 IRadAn=         1 AccDes= 0.00D+00
 Harris functional with IExCor=  205 and IRadAn=       1 diagonalized for initial guess.
 HarFok:  IExCor=  205 AccDes= 0.00D+00 IRadAn=         1 IDoV= 1 UseB2=F ITyADJ=14
 ICtDFT=  3500011 ScaDFX=  1.000000  1.000000  1.000000  1.000000
 FoFCou: FMM=F IPFlag=           0 FMFlag=      100000 FMFlg1=           0
         NFxFlg=           0 DoJE=T BraDBF=F KetDBF=T FulRan=T
         wScrn=  0.000000 ICntrl=     500 IOpCl=  0 I1Cent=   200000004 NGrid=           0
         NMat0=    1 NMatS0=      1 NMatT0=    0 NMatD0=    1 NMtDS0=    0 NMtDT0=    0
 Petite list used in FoFCou.
 Requested convergence on RMS density matrix=1.00D-08 within 128 cycles.
 Requested convergence on MAX density matrix=1.00D-06.
 Requested convergence on             energy=1.00D-06.
 No special actions if energy rises.
 Integral accuracy reduced to 1.0D-05 until final iterations.
 Initial convergence to 1.0D-05 achieved.  Increase integral accuracy.
 SCF Done:  E(RHF) =  -836.227006479     A.U. after   14 cycles
            NFock= 14  Conv=0.88D-08     -V/T= 2.0016

 **********************************************************************

            Population analysis using the SCF density.

 **********************************************************************

 Orbital symmetries:
       Occupied  (A) (A) (A) (A) (A) (A) (A) (A) (A) (A) (A) (A)
                 (A) (A) (A) (A) (A) (A) (A) (A) (A) (A) (A) (A)
                 (A) (A) (A) (A) (A) (A) (A) (A) (A) (A) (A) (A)
                 (A) (A) (A) (A) (A) (A) (A) (A) (A) (A) (A) (A)
                 (A) (A) (A) (A) (A) (A) (A) (A) (A) (A) (A) (A)
                 (A) (A) (A) (A) (A) (A) (A)
       Virtual   (A) (A) (A) (A) (A) (A) (A) (A) (A) (A) (A) (A)
                 (A) (A) (A) (A) (A) (A) (A) (A) (A) (A) (A) (A)
                 (A) (A) (A) (A) (A) (A) (A) (A) (A) (A) (A) (A)
                 (A) (A) (A) (A) (A) (A) (A) (A) (A) (A) (A) (A)
                 (A) (A) (A) (A) (A) (A) (A) (A) (A) (A) (A) (A)
                 (A) (A) (A) (A) (A) (A) (A) (A) (A) (A) (A) (A)
                 (A) (A) (A) (A) (A) (A) (A) (A) (A) (A) (A) (A)
                 (A) (A) (A) (A) (A) (A) (A) (A) (A) (A) (A) (A)
                 (A) (A) (A) (A) (A) (A) (A) (A) (A) (A) (A) (A)
                 (A) (A) (A) (A) (A) (A) (A) (A) (A) (A) (A) (A)
                 (A) (A) (A) (A) (A) (A) (A) (A) (A) (A) (A) (A)
                 (A) (A) (A) (A) (A) (A) (A) (A) (A) (A) (A) (A)
                 (A) (A) (A) (A) (A) (A) (A) (A) (A) (A) (A) (A)
                 (A) (A) (A) (A) (A) (A) (A) (A) (A) (A) (A) (A)
                 (A) (A) (A) (A) (A) (A) (A) (A) (A) (A) (A) (A)
                 (A) (A) (A) (A) (A) (A) (A) (A) (A) (A) (A) (A)
                 (A) (A) (A) (A) (A) (A) (A) (A) (A) (A) (A) (A)
                 (A) (A) (A) (A) (A) (A) (A) (A) (A) (A) (A) (A)
                 (A) (A) (A) (A) (A) (A) (A) (A) (A) (A) (A) (A)
                 (A) (A) (A) (A) (A) (A) (A) (A) (A) (A) (A)
 The electronic state is 1-A.
 Alpha  occ. eigenvalues --  -20.58090 -20.53045 -20.50979 -15.60108 -15.58378
 Alpha  occ. eigenvalues --  -11.35753 -11.34402 -11.28747 -11.27927 -11.27191
 Alpha  occ. eigenvalues --  -11.26559 -11.23144 -11.23052 -11.22807 -11.22549
 Alpha  occ. eigenvalues --  -11.22470 -11.22163 -11.22035  -1.39905  -1.38793
 Alpha  occ. eigenvalues --   -1.36674  -1.24134  -1.23421  -1.14140  -1.07398
 Alpha  occ. eigenvalues --   -1.01413  -1.00343  -0.98872  -0.96228  -0.93808
 Alpha  occ. eigenvalues --   -0.88634  -0.83417  -0.80496  -0.78709  -0.76772
 Alpha  occ. eigenvalues --   -0.73643  -0.71665  -0.68198  -0.65689  -0.65457
 Alpha  occ. eigenvalues --   -0.65104  -0.64414  -0.63607  -0.62994  -0.61602
 Alpha  occ. eigenvalues --   -0.60876  -0.58802  -0.58248  -0.57526  -0.56982
 Alpha  occ. eigenvalues --   -0.56648  -0.56225  -0.55492  -0.53468  -0.52834
 Alpha  occ. eigenvalues --   -0.51930  -0.50998  -0.49545  -0.48595  -0.46490
 Alpha  occ. eigenvalues --   -0.44974  -0.42291  -0.40775  -0.40073  -0.37997
 Alpha  occ. eigenvalues --   -0.32307  -0.28859
 Alpha virt. eigenvalues --    0.14185   0.16816   0.19444   0.21104   0.21989
 Alpha virt. eigenvalues --    0.24261   0.24646   0.25520   0.26179   0.27198
 Alpha virt. eigenvalues --    0.28664   0.29299   0.30784   0.30980   0.31514
 Alpha virt. eigenvalues --    0.31671   0.32116   0.32414   0.33255   0.33728
 Alpha virt. eigenvalues --    0.33923   0.35392   0.36245   0.38241   0.39069
 Alpha virt. eigenvalues --    0.40933   0.41512   0.45430   0.45735   0.47455
 Alpha virt. eigenvalues --    0.48166   0.50864   0.51874   0.52760   0.53785
 Alpha virt. eigenvalues --    0.55307   0.60926   0.62477   0.62606   0.70831
 Alpha virt. eigenvalues --    0.72241   0.72687   0.73100   0.74180   0.74659
 Alpha virt. eigenvalues --    0.75233   0.75458   0.76863   0.77841   0.78137
 Alpha virt. eigenvalues --    0.79849   0.81296   0.82260   0.82501   0.83061
 Alpha virt. eigenvalues --    0.84242   0.84808   0.85523   0.86055   0.87295
 Alpha virt. eigenvalues --    0.88460   0.89061   0.90894   0.92139   0.93773
 Alpha virt. eigenvalues --    0.95073   0.96443   0.97468   0.97963   0.99835
 Alpha virt. eigenvalues --    1.00289   1.01276   1.01614   1.03263   1.05590
 Alpha virt. eigenvalues --    1.07386   1.09185   1.10212   1.10693   1.10974
 Alpha virt. eigenvalues --    1.12234   1.12986   1.13801   1.14002   1.15669
 Alpha virt. eigenvalues --    1.16064   1.16481   1.16712   1.17390   1.18026
 Alpha virt. eigenvalues --    1.19274   1.19994   1.20900   1.21688   1.21925
 Alpha virt. eigenvalues --    1.22941   1.23271   1.23722   1.25289   1.26034
 Alpha virt. eigenvalues --    1.27071   1.29341   1.30488   1.31441   1.33217
 Alpha virt. eigenvalues --    1.34261   1.35105   1.36849   1.38849   1.39376
 Alpha virt. eigenvalues --    1.43217   1.47042   1.48257   1.49222   1.51218
 Alpha virt. eigenvalues --    1.52722   1.56235   1.57632   1.58996   1.60456
 Alpha virt. eigenvalues --    1.62662   1.63855   1.65120   1.65828   1.67233
 Alpha virt. eigenvalues --    1.67278   1.69625   1.72854   1.73020   1.75229
 Alpha virt. eigenvalues --    1.75590   1.77491   1.78903   1.80173   1.81299
 Alpha virt. eigenvalues --    1.82151   1.89475   1.92891   1.94789   1.97808
 Alpha virt. eigenvalues --    1.99391   2.04674   2.05595   2.09096   2.10083
 Alpha virt. eigenvalues --    2.11395   2.12272   2.13651   2.14210   2.14950
 Alpha virt. eigenvalues --    2.15846   2.16774   2.17841   2.18961   2.20110
 Alpha virt. eigenvalues --    2.21247   2.22586   2.25068   2.26369   2.28206
 Alpha virt. eigenvalues --    2.29285   2.31517   2.32822   2.33523   2.35479
 Alpha virt. eigenvalues --    2.36744   2.38183   2.39770   2.40273   2.43791
 Alpha virt. eigenvalues --    2.44597   2.45537   2.47828   2.49666   2.49835
 Alpha virt. eigenvalues --    2.52069   2.54014   2.56272   2.57150   2.57334
 Alpha virt. eigenvalues --    2.60269   2.61517   2.63243   2.63944   2.64993
 Alpha virt. eigenvalues --    2.68861   2.70346   2.71078   2.73016   2.73814
 Alpha virt. eigenvalues --    2.75686   2.77398   2.79282   2.82780   2.83469
 Alpha virt. eigenvalues --    2.89091   2.89136   2.92522   2.93895   2.96416
 Alpha virt. eigenvalues --    2.99874   3.01581   3.02357   3.04569   3.05689
 Alpha virt. eigenvalues --    3.06959   3.09257   3.13767   3.15485   3.20093
 Alpha virt. eigenvalues --    3.24502   3.27332   3.31214   3.33202   3.36037
 Alpha virt. eigenvalues --    3.37135   3.40171   3.52102   3.57114   3.61845
 Alpha virt. eigenvalues --    3.81282   4.38693   4.44915   4.46864   4.47324
 Alpha virt. eigenvalues --    4.52077   4.55116   4.59915   4.62465   4.68962
 Alpha virt. eigenvalues --    4.72354   4.74499   4.80251   4.83415   4.88689
 Alpha virt. eigenvalues --    4.89209   4.97952   5.12701   5.22187
          Condensed to atoms (all electrons):
               1          2          3          4          5          6
     1  C    5.242921   0.375829   0.375811   0.386944   0.377829  -0.068258
     2  H    0.375829   0.506413  -0.024491  -0.019191  -0.031810   0.001216
     3  H    0.375811  -0.024491   0.508975  -0.019256  -0.032633   0.001211
     4  H    0.386944  -0.019191  -0.019256   0.458002  -0.031945   0.004117
     5  C    0.377829  -0.031810  -0.032633  -0.031945   4.201529   0.586886
     6  O   -0.068258   0.001216   0.001211   0.004117   0.586886   8.220580
     7  N   -0.121065   0.003504   0.003575   0.004142   0.241958  -0.110087
     8  H   -0.001359   0.000496   0.000404  -0.000015  -0.016141   0.002032
     9  C    0.004941  -0.000228  -0.000139  -0.000091  -0.025329   0.015239
    10  H   -0.000192   0.000028  -0.000003   0.000004  -0.004140  -0.001403
    11  C   -0.000160   0.000002   0.000011   0.000004  -0.004724   0.002384
    12  H   -0.000157   0.000002  -0.000002   0.000009   0.000007   0.001345
    13  H    0.000007   0.000000  -0.000001   0.000000   0.000382   0.000172
    14  C   -0.000017   0.000000   0.000003   0.000000   0.001287  -0.012536
    15  C   -0.000003   0.000000   0.000000   0.000000  -0.000051  -0.001041
    16  H    0.000000   0.000000   0.000000   0.000000  -0.000003  -0.000014
    17  C    0.000000   0.000000   0.000000   0.000000  -0.000010   0.000074
    18  H    0.000000   0.000000   0.000000   0.000000   0.000000   0.000000
    19  C    0.000000   0.000000   0.000000   0.000000  -0.000003  -0.000013
    20  O    0.000000   0.000000   0.000000   0.000000   0.000000   0.000000
    21  C    0.000000   0.000000   0.000000   0.000000   0.000000   0.000000
    22  H    0.000000   0.000000   0.000000   0.000000   0.000000   0.000000
    23  H    0.000000   0.000000   0.000000   0.000000   0.000000   0.000000
    24  H    0.000000   0.000000   0.000000   0.000000   0.000000   0.000000
    25  C   -0.000001   0.000000   0.000000   0.000000   0.000083  -0.000833
    26  H    0.000000   0.000000   0.000000   0.000000  -0.000002  -0.000016
    27  C   -0.000001   0.000002   0.000000  -0.000001   0.001168  -0.011581
    28  H    0.000016  -0.000006   0.000001  -0.000001   0.001019   0.001904
    29  C   -0.000038  -0.000003   0.000000   0.000000   0.003728   0.000484
    30  O   -0.000039  -0.000001  -0.000001   0.000000   0.000347  -0.000003
    31  N    0.000000   0.000000   0.000000   0.000000  -0.000093  -0.000003
    32  H    0.000000   0.000000   0.000000   0.000000   0.000000   0.000004
    33  C    0.000000   0.000000   0.000000   0.000000   0.000001   0.000000
    34  H    0.000000   0.000000   0.000000   0.000000   0.000000   0.000000
    35  H    0.000000   0.000000   0.000000   0.000000   0.000000   0.000000
    36  H    0.000000   0.000000   0.000000   0.000000   0.000000   0.000000
               7          8          9         10         11         12
     1  C   -0.121065  -0.001359   0.004941  -0.000192  -0.000160  -0.000157
     2  H    0.003504   0.000496  -0.000228   0.000028   0.000002   0.000002
     3  H    0.003575   0.000404  -0.000139  -0.000003   0.000011  -0.000002
     4  H    0.004142  -0.000015  -0.000091   0.000004   0.000004   0.000009
     5  C    0.241958  -0.016141  -0.025329  -0.004140  -0.004724   0.000007
     6  O   -0.110087   0.002032   0.015239  -0.001403   0.002384   0.001345
     7  N    7.425013   0.311994   0.188217  -0.035837  -0.065495  -0.004317
     8  H    0.311994   0.287982  -0.029409   0.002559   0.003324   0.000290
     9  C    0.188217  -0.029409   5.128154   0.409685   0.310336  -0.033599
    10  H   -0.035837   0.002559   0.409685   0.542851  -0.060989   0.003367
    11  C   -0.065495   0.003324   0.310336  -0.060989   5.217798   0.393436
    12  H   -0.004317   0.000290  -0.033599   0.003367   0.393436   0.481656
    13  H    0.003270  -0.000062  -0.057340   0.003387   0.404175  -0.020475
    14  C    0.004748  -0.000182  -0.042911  -0.006257   0.297833  -0.031409
    15  C   -0.000034   0.000001   0.002786   0.000252  -0.048002  -0.004530
    16  H    0.000003   0.000000   0.000048   0.000021  -0.001645   0.001097
    17  C    0.000002   0.000000  -0.000068  -0.000057   0.002979  -0.000010
    18  H    0.000000   0.000000   0.000001   0.000000  -0.000105  -0.000001
    19  C    0.000001   0.000000  -0.000037  -0.000007   0.000344   0.000020
    20  O    0.000000   0.000000   0.000000   0.000000   0.000000   0.000000
    21  C    0.000000   0.000000   0.000000   0.000000   0.000000   0.000000
    22  H    0.000000   0.000000   0.000000   0.000000   0.000000   0.000000
    23  H    0.000000   0.000000   0.000000   0.000000   0.000000   0.000000
    24  H    0.000000   0.000000   0.000000   0.000000   0.000000   0.000000
    25  C   -0.000054   0.000000   0.001109   0.000216   0.003631  -0.000087
    26  H    0.000000   0.000000   0.000027   0.000029  -0.000123   0.000002
    27  C    0.000340  -0.000056  -0.032166  -0.012891  -0.043816   0.000885
    28  H    0.000603  -0.000076  -0.026180  -0.011726   0.000523  -0.000171
    29  C   -0.034893  -0.004214   0.390489  -0.039816  -0.037857  -0.000618
    30  O   -0.006124   0.020547  -0.079716   0.000523   0.001758  -0.000102
    31  N    0.002769   0.000758  -0.123588   0.005413  -0.007992   0.000593
    32  H    0.000037  -0.000020   0.000710   0.001179  -0.002375   0.000188
    33  C   -0.000051  -0.000019   0.003876  -0.000141  -0.000091  -0.000003
    34  H    0.000002   0.000000  -0.000120   0.000009   0.000072  -0.000004
    35  H   -0.000003  -0.000004   0.000236  -0.000031  -0.000016   0.000001
    36  H    0.000000   0.000000   0.000033  -0.000010  -0.000010   0.000000
              13         14         15         16         17         18
     1  C    0.000007  -0.000017  -0.000003   0.000000   0.000000   0.000000
     2  H    0.000000   0.000000   0.000000   0.000000   0.000000   0.000000
     3  H   -0.000001   0.000003   0.000000   0.000000   0.000000   0.000000
     4  H    0.000000   0.000000   0.000000   0.000000   0.000000   0.000000
     5  C    0.000382   0.001287  -0.000051  -0.000003  -0.000010   0.000000
     6  O    0.000172  -0.012536  -0.001041  -0.000014   0.000074   0.000000
     7  N    0.003270   0.004748  -0.000034   0.000003   0.000002   0.000000
     8  H   -0.000062  -0.000182   0.000001   0.000000   0.000000   0.000000
     9  C   -0.057340  -0.042911   0.002786   0.000048  -0.000068   0.000001
    10  H    0.003387  -0.006257   0.000252   0.000021  -0.000057   0.000000
    11  C    0.404175   0.297833  -0.048002  -0.001645   0.002979  -0.000105
    12  H   -0.020475  -0.031409  -0.004530   0.001097  -0.000010  -0.000001
    13  H    0.528278  -0.044299  -0.005098   0.001045   0.000043   0.000000
    14  C   -0.044299   4.866213   0.570760  -0.034380  -0.041320   0.001756
    15  C   -0.005098   0.570760   4.914225   0.380411   0.503589  -0.024429
    16  H    0.001045  -0.034380   0.380411   0.480968  -0.026475  -0.000978
    17  C    0.000043  -0.041320   0.503589  -0.026475   5.107494   0.384010
    18  H    0.000000   0.001756  -0.024429  -0.000978   0.384010   0.476770
    19  C    0.000001  -0.026706  -0.028474   0.001123   0.534017  -0.032989
    20  O    0.000000  -0.000040   0.004098  -0.000037  -0.058302  -0.005773
    21  C    0.000000   0.000038  -0.000129  -0.000012  -0.016706  -0.001271
    22  H    0.000000  -0.000015  -0.000218   0.000000  -0.002809  -0.003389
    23  H    0.000000   0.000000   0.000013   0.000000   0.001346   0.000490
    24  H    0.000000  -0.000011  -0.000185  -0.000002  -0.002988  -0.003234
    25  C   -0.000030  -0.043787  -0.035424   0.000218  -0.045649   0.001791
    26  H    0.000002   0.002112  -0.000012   0.000010   0.003678  -0.000098
    27  C    0.001700   0.552414  -0.024446   0.002372  -0.040382   0.000304
    28  H   -0.000085  -0.039921   0.001572  -0.000132   0.000387   0.000010
    29  C   -0.000004   0.000792  -0.000053  -0.000005   0.000002   0.000000
    30  O    0.000000  -0.000014   0.000000   0.000000   0.000000   0.000000
    31  N    0.001748   0.000106  -0.000054   0.000000   0.000001   0.000000
    32  H   -0.002142   0.003158   0.000139   0.000000  -0.000019   0.000000
    33  C   -0.000117   0.000005   0.000000   0.000000   0.000000   0.000000
    34  H   -0.000054  -0.000002   0.000000   0.000000   0.000000   0.000000
    35  H    0.000004   0.000000   0.000000   0.000000   0.000000   0.000000
    36  H    0.000012  -0.000001   0.000000   0.000000   0.000000   0.000000
              19         20         21         22         23         24
     1  C    0.000000   0.000000   0.000000   0.000000   0.000000   0.000000
     2  H    0.000000   0.000000   0.000000   0.000000   0.000000   0.000000
     3  H    0.000000   0.000000   0.000000   0.000000   0.000000   0.000000
     4  H    0.000000   0.000000   0.000000   0.000000   0.000000   0.000000
     5  C   -0.000003   0.000000   0.000000   0.000000   0.000000   0.000000
     6  O   -0.000013   0.000000   0.000000   0.000000   0.000000   0.000000
     7  N    0.000001   0.000000   0.000000   0.000000   0.000000   0.000000
     8  H    0.000000   0.000000   0.000000   0.000000   0.000000   0.000000
     9  C   -0.000037   0.000000   0.000000   0.000000   0.000000   0.000000
    10  H   -0.000007   0.000000   0.000000   0.000000   0.000000   0.000000
    11  C    0.000344   0.000000   0.000000   0.000000   0.000000   0.000000
    12  H    0.000020   0.000000   0.000000   0.000000   0.000000   0.000000
    13  H    0.000001   0.000000   0.000000   0.000000   0.000000   0.000000
    14  C   -0.026706  -0.000040   0.000038  -0.000015   0.000000  -0.000011
    15  C   -0.028474   0.004098  -0.000129  -0.000218   0.000013  -0.000185
    16  H    0.001123  -0.000037  -0.000012   0.000000   0.000000  -0.000002
    17  C    0.534017  -0.058302  -0.016706  -0.002809   0.001346  -0.002988
    18  H   -0.032989  -0.005773  -0.001271  -0.003389   0.000490  -0.003234
    19  C    4.401455   0.249267  -0.057349  -0.002521   0.002615  -0.002575
    20  O    0.249267   8.406543   0.213156  -0.039296  -0.026030  -0.038696
    21  C   -0.057349   0.213156   4.871280   0.394956   0.399706   0.396414
    22  H   -0.002521  -0.039296   0.394956   0.561218  -0.028264  -0.047270
    23  H    0.002615  -0.026030   0.399706  -0.028264   0.482870  -0.027818
    24  H   -0.002575  -0.038696   0.396414  -0.047270  -0.027818   0.553196
    25  C    0.580935  -0.042299   0.001683  -0.000004   0.000001   0.000000
    26  H   -0.028223   0.000419  -0.000065   0.000015  -0.000007   0.000015
    27  C   -0.034818   0.002410  -0.000089  -0.000012   0.000003  -0.000009
    28  H    0.001228  -0.000040   0.000002   0.000000   0.000000   0.000000
    29  C    0.000001   0.000000   0.000000   0.000000   0.000000   0.000000
    30  O    0.000000   0.000000   0.000000   0.000000   0.000000   0.000000
    31  N    0.000000   0.000000   0.000000   0.000000   0.000000   0.000000
    32  H   -0.000008   0.000000   0.000000   0.000000   0.000000   0.000000
    33  C    0.000000   0.000000   0.000000   0.000000   0.000000   0.000000
    34  H    0.000000   0.000000   0.000000   0.000000   0.000000   0.000000
    35  H    0.000000   0.000000   0.000000   0.000000   0.000000   0.000000
    36  H    0.000000   0.000000   0.000000   0.000000   0.000000   0.000000
              25         26         27         28         29         30
     1  C   -0.000001   0.000000  -0.000001   0.000016  -0.000038  -0.000039
     2  H    0.000000   0.000000   0.000002  -0.000006  -0.000003  -0.000001
     3  H    0.000000   0.000000   0.000000   0.000001   0.000000  -0.000001
     4  H    0.000000   0.000000  -0.000001  -0.000001   0.000000   0.000000
     5  C    0.000083  -0.000002   0.001168   0.001019   0.003728   0.000347
     6  O   -0.000833  -0.000016  -0.011581   0.001904   0.000484  -0.000003
     7  N   -0.000054   0.000000   0.000340   0.000603  -0.034893  -0.006124
     8  H    0.000000   0.000000  -0.000056  -0.000076  -0.004214   0.020547
     9  C    0.001109   0.000027  -0.032166  -0.026180   0.390489  -0.079716
    10  H    0.000216   0.000029  -0.012891  -0.011726  -0.039816   0.000523
    11  C    0.003631  -0.000123  -0.043816   0.000523  -0.037857   0.001758
    12  H   -0.000087   0.000002   0.000885  -0.000171  -0.000618  -0.000102
    13  H   -0.000030   0.000002   0.001700  -0.000085  -0.000004   0.000000
    14  C   -0.043787   0.002112   0.552414  -0.039921   0.000792  -0.000014
    15  C   -0.035424  -0.000012  -0.024446   0.001572  -0.000053   0.000000
    16  H    0.000218   0.000010   0.002372  -0.000132  -0.000005   0.000000
    17  C   -0.045649   0.003678  -0.040382   0.000387   0.000002   0.000000
    18  H    0.001791  -0.000098   0.000304   0.000010   0.000000   0.000000
    19  C    0.580935  -0.028223  -0.034818   0.001228   0.000001   0.000000
    20  O   -0.042299   0.000419   0.002410  -0.000040   0.000000   0.000000
    21  C    0.001683  -0.000065  -0.000089   0.000002   0.000000   0.000000
    22  H   -0.000004   0.000015  -0.000012   0.000000   0.000000   0.000000
    23  H    0.000001  -0.000007   0.000003   0.000000   0.000000   0.000000
    24  H    0.000000   0.000015  -0.000009   0.000000   0.000000   0.000000
    25  C    4.946309   0.373904   0.535135  -0.014153  -0.000009   0.000000
    26  H    0.373904   0.467129  -0.028853  -0.001148   0.000000   0.000000
    27  C    0.535135  -0.028853   4.925496   0.381776   0.000476  -0.000007
    28  H   -0.014153  -0.001148   0.381776   0.483076   0.001543  -0.000003
    29  C   -0.000009   0.000000   0.000476   0.001543   4.116208   0.598212
    30  O    0.000000   0.000000  -0.000007  -0.000003   0.598212   8.213410
    31  N   -0.000006   0.000000  -0.000054  -0.000236   0.278511  -0.104629
    32  H   -0.000002   0.000000   0.001201  -0.000148  -0.022030   0.002364
    33  C    0.000000   0.000000   0.000003   0.000004  -0.027956   0.004945
    34  H    0.000000   0.000000  -0.000001   0.000000  -0.002891   0.000744
    35  H    0.000000   0.000000   0.000000   0.000001  -0.002420   0.004952
    36  H    0.000000   0.000000   0.000000   0.000001   0.004006   0.000389
              31         32         33         34         35         36
     1  C    0.000000   0.000000   0.000000   0.000000   0.000000   0.000000
     2  H    0.000000   0.000000   0.000000   0.000000   0.000000   0.000000
     3  H    0.000000   0.000000   0.000000   0.000000   0.000000   0.000000
     4  H    0.000000   0.000000   0.000000   0.000000   0.000000   0.000000
     5  C   -0.000093   0.000000   0.000001   0.000000   0.000000   0.000000
     6  O   -0.000003   0.000004   0.000000   0.000000   0.000000   0.000000
     7  N    0.002769   0.000037  -0.000051   0.000002  -0.000003   0.000000
     8  H    0.000758  -0.000020  -0.000019   0.000000  -0.000004   0.000000
     9  C   -0.123588   0.000710   0.003876  -0.000120   0.000236   0.000033
    10  H    0.005413   0.001179  -0.000141   0.000009  -0.000031  -0.000010
    11  C   -0.007992  -0.002375  -0.000091   0.000072  -0.000016  -0.000010
    12  H    0.000593   0.000188  -0.000003  -0.000004   0.000001   0.000000
    13  H    0.001748  -0.002142  -0.000117  -0.000054   0.000004   0.000012
    14  C    0.000106   0.003158   0.000005  -0.000002   0.000000  -0.000001
    15  C   -0.000054   0.000139   0.000000   0.000000   0.000000   0.000000
    16  H    0.000000   0.000000   0.000000   0.000000   0.000000   0.000000
    17  C    0.000001  -0.000019   0.000000   0.000000   0.000000   0.000000
    18  H    0.000000   0.000000   0.000000   0.000000   0.000000   0.000000
    19  C    0.000000  -0.000008   0.000000   0.000000   0.000000   0.000000
    20  O    0.000000   0.000000   0.000000   0.000000   0.000000   0.000000
    21  C    0.000000   0.000000   0.000000   0.000000   0.000000   0.000000
    22  H    0.000000   0.000000   0.000000   0.000000   0.000000   0.000000
    23  H    0.000000   0.000000   0.000000   0.000000   0.000000   0.000000
    24  H    0.000000   0.000000   0.000000   0.000000   0.000000   0.000000
    25  C   -0.000006  -0.000002   0.000000   0.000000   0.000000   0.000000
    26  H    0.000000   0.000000   0.000000   0.000000   0.000000   0.000000
    27  C   -0.000054   0.001201   0.000003  -0.000001   0.000000   0.000000
    28  H   -0.000236  -0.000148   0.000004   0.000000   0.000001   0.000001
    29  C    0.278511  -0.022030  -0.027956  -0.002891  -0.002420   0.004006
    30  O   -0.104629   0.002364   0.004945   0.000744   0.004952   0.000389
    31  N    7.352856   0.321997   0.198282  -0.047553  -0.037216  -0.035543
    32  H    0.321997   0.317050  -0.020569   0.001603   0.002031  -0.003865
    33  C    0.198282  -0.020569   4.903598   0.407898   0.403226   0.397691
    34  H   -0.047553   0.001603   0.407898   0.517193  -0.030336  -0.032413
    35  H   -0.037216   0.002031   0.403226  -0.030336   0.469727  -0.023918
    36  H   -0.035543  -0.003865   0.397691  -0.032413  -0.023918   0.517120
 Mulliken charges:
               1
     1  C   -0.573008
     2  H    0.188239
     3  H    0.186536
     4  H    0.217276
     5  C    0.730661
     6  O   -0.631860
     7  N   -0.812220
     8  H    0.421169
     9  C   -0.004968
    10  H    0.203980
    11  C   -0.365213
    12  H    0.212585
    13  H    0.185480
    14  C    0.022582
    15  C   -0.205664
    16  H    0.196366
    17  C   -0.302828
    18  H    0.207136
    19  C    0.442716
    20  O   -0.665380
    21  C   -0.201614
    22  H    0.167609
    23  H    0.195073
    24  H    0.173162
    25  C   -0.262679
    26  H    0.211205
    27  C   -0.176504
    28  H    0.220365
    29  C    0.778356
    30  O   -0.657551
    31  N   -0.806067
    32  H    0.399515
    33  C   -0.270582
    34  H    0.185852
    35  H    0.213767
    36  H    0.176508
 Sum of Mulliken charges =   0.00000
 Mulliken charges with hydrogens summed into heavy atoms:
               1
     1  C    0.019043
     5  C    0.730661
     6  O   -0.631860
     7  N   -0.391051
     9  C    0.199013
    11  C    0.032852
    14  C    0.022582
    15  C   -0.009297
    17  C   -0.095692
    19  C    0.442716
    20  O   -0.665380
    21  C    0.334231
    25  C   -0.051474
    27  C    0.043861
    29  C    0.778356
    30  O   -0.657551
    31  N   -0.406552
    33  C    0.305545
 Electronic spatial extent (au):  <R**2>=           5934.3680
 Charge=              0.0000 electrons
 Dipole moment (field-independent basis, Debye):
    X=             -0.2331    Y=             -2.8804    Z=              1.2882  Tot=              3.1639
 Quadrupole moment (field-independent basis, Debye-Ang):
   XX=           -107.6747   YY=            -96.5724   ZZ=           -103.2305
   XY=             -6.0364   XZ=              8.3278   YZ=              0.2350
 Traceless Quadrupole moment (field-independent basis, Debye-Ang):
   XX=             -5.1822   YY=              5.9201   ZZ=             -0.7380
   XY=             -6.0364   XZ=              8.3278   YZ=              0.2350
 Octapole moment (field-independent basis, Debye-Ang**2):
  XXX=            129.2910  YYY=            -17.3856  ZZZ=             -1.3758  XYY=            -63.0914
  XXY=             -0.8041  XXZ=             34.9227  XZZ=             -5.6181  YZZ=              2.0319
  YYZ=             -2.1628  XYZ=             -8.0541
 Hexadecapole moment (field-independent basis, Debye-Ang**3):
 XXXX=          -5030.2877 YYYY=          -1814.4079 ZZZZ=           -428.6856 XXXY=           -106.9824
 XXXZ=            186.5100 YYYX=             44.1608 YYYZ=             23.4769 ZZZX=             -3.4978
 ZZZY=             -8.5661 XXYY=          -1073.5182 XXZZ=           -960.6753 YYZZ=           -412.8013
 XXYZ=             -6.0243 YYXZ=              7.9372 ZZXY=              0.9121
 N-N= 1.333311043079D+03 E-N=-4.625038920400D+03  KE= 8.349001070419D+02
 Calling FoFJK, ICntrl=      2127 FMM=F ISym2X=0 I1Cent= 0 IOpClX= 0 NMat=1 NMatS=1 NMatT=0.
 ***** Axes restored to original set *****
 -------------------------------------------------------------------
 Center     Atomic                   Forces (Hartrees/Bohr)
 Number     Number              X              Y              Z
 -------------------------------------------------------------------
      1        6          -0.010779872   -0.022312320   -0.008130018
      2        1           0.002475249    0.000923020    0.011281337
      3        1           0.011598920    0.001072190   -0.001331604
      4        1          -0.005005330    0.004010826   -0.003543292
      5        6          -0.035189166    0.030223771   -0.022706504
      6        8           0.038898390   -0.000559715    0.028346759
      7        7           0.015961836   -0.008852347    0.017385661
      8        1          -0.010783089   -0.004423032   -0.006869159
      9        6           0.013700498   -0.004635536    0.004020421
     10        1           0.034256968   -0.006058598    0.006975703
     11        6          -0.010981063    0.003250293   -0.009578584
     12        1          -0.000589827   -0.007669359    0.001943053
     13        1           0.001444403    0.008426149   -0.004494288
     14        6          -0.007549145   -0.004781707   -0.008937440
     15        6          -0.012584167    0.001693869    0.011019176
     16        1          -0.007765385    0.001906456    0.006556733
     17        6           0.013031395   -0.001882630    0.001387832
     18        1           0.011954933   -0.000273537    0.017736088
     19        6           0.007736921   -0.000814733   -0.005196618
     20        8           0.003899782   -0.002319224   -0.016138232
     21        6          -0.007410334    0.003259214    0.023649869
     22        1          -0.001282111   -0.008271515   -0.005253345
     23        1          -0.008939403    0.001744980    0.005322659
     24        1           0.001074890    0.007254351   -0.006354795
     25        6           0.002310789   -0.001652579    0.004110532
     26        1           0.007042830   -0.001454154   -0.009681424
     27        6          -0.025551250   -0.003345152   -0.022143083
     28        1          -0.026659923    0.006692735   -0.026398091
     29        6           0.038271660    0.021278716    0.035160545
     30        8          -0.029020967   -0.008084416   -0.021134616
     31        7          -0.013545012   -0.018060087   -0.001117259
     32        1           0.012087092    0.002727306    0.009134281
     33        6          -0.006483635    0.019146043   -0.006238920
     34        1           0.008689523   -0.004333628   -0.003716605
     35        1           0.002507770    0.001206566    0.006167132
     36        1          -0.006824173   -0.005032214   -0.001233903
 -------------------------------------------------------------------
 Cartesian Forces:  Max     0.038898390 RMS     0.013559951
 -----------------------------------------------------------------------------------------------
                       Internal Coordinate Forces (Hartree/Bohr or radian)
  Cent   Atom   N1       Length/X         N2         Alpha/Y        N3         Beta/Z          J
 -----------------------------------------------------------------------------------------------
      1  C 
      2  H        1   0.011281(     1)
      3  H        1   0.011379(     2)      2  -0.005279(    36)
      4  H        1   0.006815(     3)      2   0.002727(    37)      3  -0.004441(    70)     0
      5  C        1  -0.014695(     4)      2   0.003576(    38)      3   0.006485(    71)     0
      6  O        5  -0.048002(     5)      1  -0.008021(    39)      2  -0.000088(    72)     0
      7  N        5   0.009956(     6)      1  -0.021968(    40)      6  -0.000769(    73)     0
      8  H        7  -0.012623(     7)      5   0.009221(    41)      6   0.000948(    74)     0
      9  C        7   0.007169(     8)      5   0.055724(    42)      6   0.001484(    75)     0
     10  H        9  -0.029470(     9)      7  -0.001927(    43)      5  -0.038325(    76)     0
     11  C        9   0.043080(    10)      7   0.009552(    44)      5   0.015768(    77)     0
     12  H       11  -0.006564(    11)      9   0.001853(    45)      7   0.008476(    78)     0
     13  H       11  -0.005870(    12)      9   0.012623(    46)      7  -0.008951(    79)     0
     14  C       11   0.057245(    13)      9   0.198916(    47)      7  -0.026634(    80)     0
     15  C       14   0.029243(    14)     11  -0.162454(    48)      9   0.005528(    81)     0
     16  H       15  -0.010336(    15)     14   0.000416(    49)     11  -0.000415(    82)     0
     17  C       15   0.034082(    16)     14   0.264073(    50)     11  -0.004830(    83)     0
     18  H       17  -0.019689(    17)     15  -0.017221(    51)     14  -0.000201(    84)     0
     19  C       17  -0.002144(    18)     15   0.168583(    52)     14   0.001218(    85)     0
     20  O       19   0.011653(    19)     17   0.088537(    53)     15   0.000165(    86)     0
     21  C       20  -0.016300(    20)     19   0.074789(    54)     17  -0.000310(    87)     0
     22  H       21   0.008586(    21)     20   0.006471(    55)     19   0.007054(    88)     0
     23  H       21   0.007304(    22)     20  -0.015390(    56)     19   0.000033(    89)     0
     24  H       21   0.008472(    23)     20   0.006283(    57)     19  -0.006803(    90)     0
     25  C       19  -0.061359(    24)     17   0.058267(    58)     15   0.002751(    91)     0
     26  H       25  -0.011758(    25)     19  -0.005476(    59)     17  -0.000627(    92)     0
     27  C       25  -0.065310(    26)     19  -0.030733(    60)     17  -0.001351(    93)     0
     28  H       27  -0.030752(    27)     25  -0.045349(    61)     19  -0.008460(    94)     0
     29  C        9   0.002142(    28)      7  -0.043123(    62)      5   0.027808(    95)     0
     30  O       29  -0.036691(    29)      9   0.006414(    63)      7  -0.001275(    96)     0
     31  N       29   0.004442(    30)      9   0.001238(    64)      7  -0.010582(    97)     0
     32  H       31  -0.015333(    31)     29  -0.002410(    65)      9  -0.000892(    98)     0
     33  C       31  -0.011693(    32)     29  -0.001893(    66)      9   0.000173(    99)     0
     34  H       33   0.009847(    33)     31   0.006666(    67)     29   0.000999(   100)     0
     35  H       33   0.006745(    34)     31  -0.000356(    68)     29  -0.000957(   101)     0
     36  H       33   0.008281(    35)     31  -0.004428(    69)     29   0.000408(   102)     0
 -----------------------------------------------------------------------------------------------
 Internal  Forces:  Max     0.264073400 RMS     0.046205957

 GradGradGradGradGradGradGradGradGradGradGradGradGradGradGradGradGradGrad
 Berny optimization.
 Search for a local minimum.
 Step number   1 out of a maximum of  109
 All quantities printed in internal units (Hartrees-Bohrs-Radians)
 Second derivative matrix not updated -- first step.
 ITU=  0
     Eigenvalues ---    0.01201   0.01295   0.01300   0.01382   0.01696
     Eigenvalues ---    0.02924   0.03031   0.03091   0.03375   0.03588
     Eigenvalues ---    0.04154   0.06299   0.08947   0.09857   0.11723
     Eigenvalues ---    0.13678   0.13678   0.13735   0.13735   0.15739
     Eigenvalues ---    0.15841   0.16377   0.17267   0.18160   0.18408
     Eigenvalues ---    0.19879   0.19880   0.20746   0.20814   0.20949
     Eigenvalues ---    0.21709   0.22165   0.23026   0.23556   0.25000
     Eigenvalues ---    0.25000   0.25000   0.27040   0.28519   0.29905
     Eigenvalues ---    0.30117   0.30227   0.31317   0.31516   0.31521
     Eigenvalues ---    0.32469   0.32471   0.34749   0.34756   0.34769
     Eigenvalues ---    0.34783   0.34798   0.34808   0.34837   0.35740
     Eigenvalues ---    0.36625   0.36834   0.37230   0.37230   0.37230
     Eigenvalues ---    0.37230   0.37230   0.37230   0.37230   0.37230
     Eigenvalues ---    0.37230   0.38379   0.39906   0.39906   0.40026
     Eigenvalues ---    0.40087   0.40087   0.40515   0.40989   0.41148
     Eigenvalues ---    0.42582   0.43162   0.45605   0.45660   0.45709
     Eigenvalues ---    0.45943   0.46057   0.47442   0.49155   0.52939
     Eigenvalues ---    0.53121   0.53121   0.58306   0.58349   0.58526
     Eigenvalues ---    0.62311   0.69326   0.75000   0.75000   0.91071
     Eigenvalues ---    0.91389   2.06904   3.19117  26.05590
 RFO step:  Lambda=-2.04352904D-01 EMin= 1.20116379D-02
 Linear search not attempted -- first point.
 Maximum step size (   0.300) exceeded in Quadratic search.
    -- Step size scaled by   0.503
 Variable       Old X    -DE/DX   Delta X   Delta X   Delta X     New X
                                 (Linear)    (Quad)   (Total)
    B1        2.02201   0.01128   0.00000   0.00985   0.00985   2.03185
    B2        2.02201   0.01138   0.00000   0.00993   0.00993   2.03194
    B3        2.02201   0.00682   0.00000   0.00595   0.00595   2.02796
    B4        2.91018  -0.01470   0.00000  -0.01511  -0.01511   2.89507
    B5        2.32443  -0.04800   0.00000  -0.02167  -0.02167   2.30276
    B6        2.52307   0.00996   0.00000   0.00636   0.00636   2.52943
    B7        1.90767  -0.01262   0.00000  -0.00956  -0.00956   1.89811
    B8        2.73817   0.00717   0.00000   0.00614   0.00614   2.74431
    B9        2.06052  -0.02947   0.00000  -0.02687  -0.02687   2.03365
   B10        2.88153   0.04308   0.00000   0.04308   0.04308   2.92461
   B11        2.06005  -0.00656   0.00000  -0.00598  -0.00598   2.05407
   B12        2.05941  -0.00587   0.00000  -0.00535  -0.00535   2.05406
   B13        2.85412   0.05725   0.00000   0.05568   0.05568   2.90980
   B14        2.64424   0.02924   0.00000  -0.00394  -0.00394   2.64030
   B15        2.06029  -0.01034   0.00000  -0.00942  -0.00942   2.05087
   B16        2.64614   0.03408   0.00000  -0.01049  -0.01049   2.63566
   B17        2.05987  -0.01969   0.00000  -0.01794  -0.01794   2.04193
   B18        2.64533  -0.00214   0.00000  -0.01184  -0.01184   2.63349
   B19        2.57011   0.01165   0.00000   0.00799   0.00799   2.57811
   B20        2.70231  -0.01630   0.00000  -0.01336  -0.01336   2.68895
   B21        2.02201   0.00859   0.00000   0.00750   0.00750   2.02950
   B22        2.02201   0.00730   0.00000   0.00638   0.00638   2.02838
   B23        2.02201   0.00847   0.00000   0.00740   0.00740   2.02940
   B24        2.64576  -0.06136   0.00000  -0.02053  -0.02053   2.62523
   B25        2.06072  -0.01176   0.00000  -0.01072  -0.01072   2.05000
   B26        2.64446  -0.06531   0.00000  -0.01330  -0.01330   2.63117
   B27        2.06084  -0.03075   0.00000  -0.02805  -0.02805   2.03279
   B28        2.87513   0.00214   0.00000   0.00213   0.00213   2.87726
   B29        2.32300  -0.03669   0.00000  -0.01652  -0.01652   2.30648
   B30        2.52271   0.00444   0.00000   0.00284   0.00284   2.52555
   B31        1.90896  -0.01533   0.00000  -0.01163  -0.01163   1.89733
   B32        2.77790  -0.01169   0.00000  -0.01048  -0.01048   2.76742
   B33        2.02201   0.00985   0.00000   0.00860   0.00860   2.03060
   B34        2.02201   0.00675   0.00000   0.00589   0.00589   2.02789
   B35        2.02201   0.00828   0.00000   0.00723   0.00723   2.02924
    A1        1.91063  -0.00528   0.00000  -0.00558  -0.00558   1.90505
    A2        1.91063   0.00273   0.00000   0.00358   0.00358   1.91422
    A3        2.10293  -0.00802   0.00000  -0.00019  -0.00019   2.10275
[...]
     3  H    0.003119   0.000373  -0.000214  -0.000007   0.000052  -0.000032
     4  H    0.004596  -0.000014  -0.000088  -0.000002   0.000004   0.000001
     5  C    0.257096  -0.015508  -0.027512  -0.000920  -0.002760   0.002663
     6  O   -0.111194   0.002013   0.009939   0.006534  -0.003971   0.004998
     7  N    7.437817   0.312224   0.190344  -0.041174  -0.059677  -0.007126
     8  H    0.312224   0.291333  -0.026852   0.002592   0.002242  -0.000181
     9  C    0.190344  -0.026852   5.100581   0.410146   0.331921  -0.039319
    10  H   -0.041174   0.002592   0.410146   0.473333  -0.041769  -0.002261
    11  C   -0.059677   0.002242   0.331921  -0.041769   5.137125   0.404083
    12  H   -0.007126  -0.000181  -0.039319  -0.002261   0.404083   0.473171
    13  H    0.001233   0.000497  -0.041821   0.003711   0.398020  -0.021735
    14  C    0.004688  -0.000054  -0.056688   0.000714   0.316238  -0.037051
    15  C   -0.000038   0.000001  -0.001796   0.000386  -0.038600   0.001309
    16  H   -0.000009   0.000000   0.000019   0.000008  -0.002308   0.000012
    17  C    0.000000   0.000000  -0.000062  -0.000008   0.003361  -0.000070
    18  H    0.000000   0.000000   0.000001   0.000000  -0.000104   0.000002
    19  C    0.000000   0.000000   0.000001  -0.000001   0.000263   0.000009
    20  O    0.000000   0.000000   0.000000   0.000000   0.000000   0.000000
    21  C    0.000000   0.000000   0.000000   0.000000   0.000000   0.000000
    22  H    0.000000   0.000000   0.000000   0.000000   0.000000   0.000000
    23  H    0.000000   0.000000   0.000000   0.000000   0.000000   0.000000
    24  H    0.000000   0.000000   0.000000   0.000000   0.000000   0.000000
    25  C    0.000000   0.000000   0.000066  -0.000033   0.002150   0.000069
    26  H    0.000000   0.000000   0.000002   0.000002  -0.000096  -0.000004
    27  C   -0.000020  -0.000001  -0.003662   0.001976  -0.049036  -0.002855
    28  H   -0.000092   0.000000  -0.000089   0.000729  -0.001808   0.001415
    29  C   -0.039994  -0.006842   0.359695  -0.042912  -0.046230   0.004036
    30  O   -0.008308   0.021536  -0.081353   0.001887  -0.000103  -0.000068
    31  N    0.002251   0.000972  -0.106581   0.004978   0.000749  -0.000134
    32  H    0.000068  -0.000030  -0.000003   0.001439  -0.001085   0.000030
    33  C   -0.000096  -0.000026   0.004732   0.000023  -0.000296   0.000004
    34  H   -0.000002  -0.000001  -0.000124   0.000004   0.000055   0.000000
    35  H    0.000006  -0.000001   0.000043  -0.000016  -0.000013   0.000000
    36  H    0.000001   0.000000  -0.000002  -0.000016  -0.000001   0.000000
              13         14         15         16         17         18
     1  C   -0.000003   0.000002   0.000000   0.000000   0.000000   0.000000
     2  H    0.000000   0.000000   0.000000   0.000000   0.000000   0.000000
     3  H   -0.000005   0.000000   0.000000   0.000000   0.000000   0.000000
     4  H    0.000000   0.000000   0.000000   0.000000   0.000000   0.000000
     5  C    0.000310   0.000019  -0.000004   0.000000   0.000000   0.000000
     6  O    0.000042  -0.000097  -0.000002   0.000000   0.000000   0.000000
     7  N    0.001233   0.004688  -0.000038  -0.000009   0.000000   0.000000
     8  H    0.000497  -0.000054   0.000001   0.000000   0.000000   0.000000
     9  C   -0.041821  -0.056688  -0.001796   0.000019  -0.000062   0.000001
    10  H    0.003711   0.000714   0.000386   0.000008  -0.000008   0.000000
    11  C    0.398020   0.316238  -0.038600  -0.002308   0.003361  -0.000104
    12  H   -0.021735  -0.037051   0.001309   0.000012  -0.000070   0.000002
    13  H    0.507959  -0.042278  -0.001178   0.002578   0.000272  -0.000007
    14  C   -0.042278   4.883357   0.586786  -0.028940  -0.048852   0.001795
    15  C   -0.001178   0.586786   4.914744   0.379001   0.494454  -0.026479
    16  H    0.002578  -0.028940   0.379001   0.467051  -0.028513  -0.001428
    17  C    0.000272  -0.048852   0.494454  -0.028513   5.087374   0.380581
    18  H   -0.000007   0.001795  -0.026479  -0.001428   0.380581   0.465790
    19  C   -0.000012  -0.025209  -0.026363   0.001001   0.549104  -0.029715
    20  O    0.000000   0.000070   0.003729  -0.000038  -0.056144  -0.004406
    21  C    0.000000   0.000020  -0.000359  -0.000008  -0.007884   0.002030
    22  H    0.000000  -0.000001  -0.000245  -0.000001   0.000966  -0.000060
    23  H    0.000000   0.000000   0.000016   0.000000   0.000323   0.000033
    24  H    0.000000  -0.000004  -0.000235   0.000001   0.001177  -0.000042
    25  C   -0.000030  -0.049009  -0.035515   0.000305  -0.057745   0.002379
    26  H    0.000002   0.002201  -0.000116   0.000011   0.004239  -0.000105
    27  C    0.003107   0.545730  -0.045228   0.003150  -0.034656   0.000249
    28  H   -0.000006  -0.031379   0.003067  -0.000124   0.000059   0.000010
    29  C   -0.003769  -0.002093   0.001049   0.000116  -0.000004   0.000000
    30  O    0.002517  -0.000196   0.000012   0.000032   0.000001   0.000000
    31  N    0.000502  -0.001735  -0.000227  -0.000046   0.000012  -0.000002
    32  H    0.000026   0.003940   0.000303   0.000000  -0.000230   0.000001
    33  C   -0.000003   0.000143   0.000015   0.000015   0.000009   0.000001
    34  H    0.000008   0.000045   0.000301   0.000085   0.000068   0.000001
    35  H   -0.000002  -0.000001   0.000005  -0.000001   0.000001   0.000000
    36  H    0.000000  -0.000003  -0.000012  -0.000001  -0.000001   0.000000
              19         20         21         22         23         24
     1  C    0.000000   0.000000   0.000000   0.000000   0.000000   0.000000
     2  H    0.000000   0.000000   0.000000   0.000000   0.000000   0.000000
     3  H    0.000000   0.000000   0.000000   0.000000   0.000000   0.000000
     4  H    0.000000   0.000000   0.000000   0.000000   0.000000   0.000000
     5  C    0.000000   0.000000   0.000000   0.000000   0.000000   0.000000
     6  O    0.000000   0.000000   0.000000   0.000000   0.000000   0.000000
     7  N    0.000000   0.000000   0.000000   0.000000   0.000000   0.000000
     8  H    0.000000   0.000000   0.000000   0.000000   0.000000   0.000000
     9  C    0.000001   0.000000   0.000000   0.000000   0.000000   0.000000
    10  H   -0.000001   0.000000   0.000000   0.000000   0.000000   0.000000
    11  C    0.000263   0.000000   0.000000   0.000000   0.000000   0.000000
    12  H    0.000009   0.000000   0.000000   0.000000   0.000000   0.000000
    13  H   -0.000012   0.000000   0.000000   0.000000   0.000000   0.000000
    14  C   -0.025209   0.000070   0.000020  -0.000001   0.000000  -0.000004
    15  C   -0.026363   0.003729  -0.000359  -0.000245   0.000016  -0.000235
    16  H    0.001001  -0.000038  -0.000008  -0.000001   0.000000   0.000001
    17  C    0.549104  -0.056144  -0.007884   0.000966   0.000323   0.001177
    18  H   -0.029715  -0.004406   0.002030  -0.000060   0.000033  -0.000042
    19  C    4.375957   0.257292  -0.043231  -0.001088   0.002225  -0.001065
    20  O    0.257292   8.407799   0.203364  -0.039334  -0.033549  -0.038871
    21  C   -0.043231   0.203364   4.842689   0.390297   0.405964   0.390777
    22  H   -0.001088  -0.039334   0.390297   0.563715  -0.029157  -0.044136
    23  H    0.002225  -0.033549   0.405964  -0.029157   0.488901  -0.028234
    24  H   -0.001065  -0.038871   0.390777  -0.044136  -0.028234   0.557305
    25  C    0.578189  -0.051771   0.002740  -0.000033  -0.000005   0.000009
    26  H   -0.029127   0.001088  -0.000115   0.000018  -0.000021   0.000018
    27  C   -0.040738   0.002119  -0.000090  -0.000004   0.000003  -0.000002
    28  H    0.001999  -0.000048   0.000002   0.000000   0.000000   0.000000
    29  C    0.000002   0.000000   0.000000   0.000000   0.000000   0.000000
    30  O    0.000000   0.000000   0.000000   0.000000   0.000000   0.000000
    31  N    0.000009   0.000000   0.000000   0.000000   0.000000   0.000000
    32  H   -0.000047   0.000000   0.000000   0.000000   0.000000   0.000000
    33  C   -0.000003   0.000000   0.000000   0.000000   0.000000   0.000000
    34  H   -0.000001   0.000000   0.000000   0.000000   0.000000   0.000000
    35  H    0.000000   0.000000   0.000000   0.000000   0.000000   0.000000
    36  H    0.000000   0.000000   0.000000   0.000000   0.000000   0.000000
              25         26         27         28         29         30
     1  C    0.000000   0.000000   0.000000   0.000002  -0.000033  -0.000047
     2  H    0.000000   0.000000   0.000000   0.000000  -0.000006   0.000000
     3  H    0.000000   0.000000   0.000000   0.000000  -0.000003  -0.000002
     4  H    0.000000   0.000000   0.000000   0.000000   0.000000   0.000000
     5  C    0.000000   0.000000   0.000013   0.000004   0.003762   0.000392
     6  O    0.000001   0.000000  -0.000164   0.000780   0.000466  -0.000004
     7  N    0.000000   0.000000  -0.000020  -0.000092  -0.039994  -0.008308
     8  H    0.000000   0.000000  -0.000001   0.000000  -0.006842   0.021536
     9  C    0.000066   0.000002  -0.003662  -0.000089   0.359695  -0.081353
    10  H   -0.000033   0.000002   0.001976   0.000729  -0.042912   0.001887
    11  C    0.002150  -0.000096  -0.049036  -0.001808  -0.046230  -0.000103
    12  H    0.000069  -0.000004  -0.002855   0.001415   0.004036  -0.000068
    13  H   -0.000030   0.000002   0.003107  -0.000006  -0.003769   0.002517
    14  C   -0.049009   0.002201   0.545730  -0.031379  -0.002093  -0.000196
    15  C   -0.035515  -0.000116  -0.045228   0.003067   0.001049   0.000012
    16  H    0.000305   0.000011   0.003150  -0.000124   0.000116   0.000032
    17  C   -0.057745   0.004239  -0.034656   0.000059  -0.000004   0.000001
    18  H    0.002379  -0.000105   0.000249   0.000010   0.000000   0.000000
    19  C    0.578189  -0.029127  -0.040738   0.001999   0.000002   0.000000
    20  O   -0.051771   0.001088   0.002119  -0.000048   0.000000   0.000000
    21  C    0.002740  -0.000115  -0.000090   0.000002   0.000000   0.000000
    22  H   -0.000033   0.000018  -0.000004   0.000000   0.000000   0.000000
    23  H   -0.000005  -0.000021   0.000003   0.000000   0.000000   0.000000
    24  H    0.000009   0.000018  -0.000002   0.000000   0.000000   0.000000
    25  C    4.958541   0.376169   0.547188  -0.026683  -0.000001   0.000000
    26  H    0.376169   0.455357  -0.028454  -0.001981   0.000000   0.000000
    27  C    0.547188  -0.028454   4.941321   0.378867   0.000101  -0.000008
    28  H   -0.026683  -0.001981   0.378867   0.446356   0.000095   0.000000
    29  C   -0.000001   0.000000   0.000101   0.000095   4.160588   0.592616
    30  O    0.000000   0.000000  -0.000008   0.000000   0.592616   8.201573
    31  N   -0.000062   0.000000  -0.000797  -0.000005   0.293680  -0.103776
    32  H    0.000403   0.000001   0.002855   0.000014  -0.019598   0.002441
    33  C   -0.000003   0.000000   0.000015   0.000000  -0.031349   0.006634
    34  H   -0.000002   0.000000  -0.000002   0.000000  -0.002543   0.001182
    35  H    0.000000   0.000000   0.000000   0.000000  -0.003694   0.004074
    36  H    0.000000   0.000000   0.000000   0.000000   0.004273   0.000327
              31         32         33         34         35         36
     1  C   -0.000001   0.000000   0.000000   0.000000   0.000000   0.000000
     2  H    0.000000   0.000000   0.000000   0.000000   0.000000   0.000000
     3  H    0.000000   0.000000   0.000000   0.000000   0.000000   0.000000
     4  H    0.000000   0.000000   0.000000   0.000000   0.000000   0.000000
     5  C   -0.000099  -0.000003   0.000001   0.000000   0.000000   0.000000
     6  O   -0.000003  -0.000001   0.000000   0.000000   0.000000   0.000000
     7  N    0.002251   0.000068  -0.000096  -0.000002   0.000006   0.000001
     8  H    0.000972  -0.000030  -0.000026  -0.000001  -0.000001   0.000000
     9  C   -0.106581  -0.000003   0.004732  -0.000124   0.000043  -0.000002
    10  H    0.004978   0.001439   0.000023   0.000004  -0.000016  -0.000016
    11  C    0.000749  -0.001085  -0.000296   0.000055  -0.000013  -0.000001
    12  H   -0.000134   0.000030   0.000004   0.000000   0.000000   0.000000
    13  H    0.000502   0.000026  -0.000003   0.000008  -0.000002   0.000000
    14  C   -0.001735   0.003940   0.000143   0.000045  -0.000001  -0.000003
    15  C   -0.000227   0.000303   0.000015   0.000301   0.000005  -0.000012
    16  H   -0.000046   0.000000   0.000015   0.000085  -0.000001  -0.000001
    17  C    0.000012  -0.000230   0.000009   0.000068   0.000001  -0.000001
    18  H   -0.000002   0.000001   0.000001   0.000001   0.000000   0.000000
    19  C    0.000009  -0.000047  -0.000003  -0.000001   0.000000   0.000000
    20  O    0.000000   0.000000   0.000000   0.000000   0.000000   0.000000
    21  C    0.000000   0.000000   0.000000   0.000000   0.000000   0.000000
    22  H    0.000000   0.000000   0.000000   0.000000   0.000000   0.000000
    23  H    0.000000   0.000000   0.000000   0.000000   0.000000   0.000000
    24  H    0.000000   0.000000   0.000000   0.000000   0.000000   0.000000
    25  C   -0.000062   0.000403  -0.000003  -0.000002   0.000000   0.000000
    26  H    0.000000   0.000001   0.000000   0.000000   0.000000   0.000000
    27  C   -0.000797   0.002855   0.000015  -0.000002   0.000000   0.000000
    28  H   -0.000005   0.000014   0.000000   0.000000   0.000000   0.000000
    29  C    0.293680  -0.019598  -0.031349  -0.002543  -0.003694   0.004273
    30  O   -0.103776   0.002441   0.006634   0.001182   0.004074   0.000327
    31  N    7.298980   0.321899   0.201482  -0.048538  -0.037751  -0.037943
    32  H    0.321899   0.311090  -0.021754   0.001042   0.002494  -0.004166
    33  C    0.201482  -0.021754   4.911523   0.404711   0.402932   0.398737
    34  H   -0.048538   0.001042   0.404711   0.533826  -0.032367  -0.032655
    35  H   -0.037751   0.002494   0.402932  -0.032367   0.482026  -0.023953
    36  H   -0.037943  -0.004166   0.398737  -0.032655  -0.023953   0.522058
 Mulliken charges:
               1
     1  C   -0.582291
     2  H    0.190214
     3  H    0.188012
     4  H    0.213521
     5  C    0.748363
     6  O   -0.622574
     7  N   -0.821097
     8  H    0.416299
     9  C   -0.026153
    10  H    0.220409
    11  C   -0.348091
    12  H    0.218910
    13  H    0.190064
    14  C   -0.022157
    15  C   -0.208781
    16  H    0.208032
    17  C   -0.287832
    18  H    0.209475
    19  C    0.430547
    20  O   -0.651301
    21  C   -0.186199
    22  H    0.159063
    23  H    0.193501
    24  H    0.163303
    25  C   -0.247318
    26  H    0.220912
    27  C   -0.220976
    28  H    0.228816
    29  C    0.778592
    30  O   -0.641360
    31  N   -0.787813
    32  H    0.398872
    33  C   -0.277446
    34  H    0.174908
    35  H    0.206220
    36  H    0.173357
 Sum of Mulliken charges =   0.00000
 Mulliken charges with hydrogens summed into heavy atoms:
               1
     1  C    0.009455
     5  C    0.748363
     6  O   -0.622574
     7  N   -0.404798
     9  C    0.194256
    11  C    0.060884
    14  C   -0.022157
    15  C   -0.000750
    17  C   -0.078357
    19  C    0.430547
    20  O   -0.651301
    21  C    0.329667
    25  C   -0.026405
    27  C    0.007841
    29  C    0.778592
    30  O   -0.641360
    31  N   -0.388941
    33  C    0.277039
 Electronic spatial extent (au):  <R**2>=           6134.5372
 Charge=              0.0000 electrons
 Dipole moment (field-independent basis, Debye):
    X=              2.5633    Y=             -2.3724    Z=              0.5642  Tot=              3.5380
 Quadrupole moment (field-independent basis, Debye-Ang):
   XX=            -89.8827   YY=           -116.2507   ZZ=           -106.3104
   XY=             -5.7989   XZ=             -0.0026   YZ=              6.1184
 Traceless Quadrupole moment (field-independent basis, Debye-Ang):
   XX=             14.2652   YY=            -12.1027   ZZ=             -2.1625
   XY=             -5.7989   XZ=             -0.0026   YZ=              6.1184
 Octapole moment (field-independent basis, Debye-Ang**2):
  XXX=             13.4061  YYY=            -26.5765  ZZZ=             -3.0370  XYY=             33.0769
  XXY=            -20.7150  XXZ=             35.0604  XZZ=              1.4258  YZZ=             -5.4850
  YYZ=            -12.0257  XYZ=            -21.2567
 Hexadecapole moment (field-independent basis, Debye-Ang**3):
 XXXX=          -4930.9795 YYYY=          -1592.9077 ZZZZ=           -432.5437 XXXY=           -124.3019
 XXXZ=             40.7843 YYYX=             -2.2920 YYYZ=             45.6157 ZZZX=            -16.6555
 ZZZY=            -13.3536 XXYY=          -1377.8444 XXZZ=          -1082.6946 YYZZ=           -339.9898
 XXYZ=             45.8945 YYXZ=            -20.9507 ZZXY=             -2.3782
 N-N= 1.321527070134D+03 E-N=-4.601107872821D+03  KE= 8.351862005896D+02
 1\1\GINC-E09\POpt\RHF\6-31G(d)\C13H18N2O3\WISE\15-May-2016\1\\# opt=z-
 matrix HF/6-31G* scf=tight\\Title Card Required\\0,1\C\H,1,B1\H,1,B2,2
 ,A1\H,1,B3,2,A2,3,D1,0\C,1,B4,2,109.47122063,3,119.99998525,0\O,5,B5,1
 ,A3,2,119.6833926,0\N,5,B6,1,A4,6,D2,0\H,7,B7,5,A5,6,D3,0\C,7,B8,5,A6,
 6,D4,0\H,9,B9,7,A7,5,D5,0\C,9,B10,7,A8,5,D6,0\H,11,B11,9,A9,7,D7,0\H,1
 1,B12,9,A10,7,D8,0\C,11,B13,9,A11,7,D9,0\C,14,B14,11,A12,9,D10,0\H,15,
 B15,14,A13,11,D11,0\C,15,B16,14,A14,11,D12,0\H,17,B17,15,A15,14,D13,0\
 C,17,B18,15,A16,14,D14,0\O,19,B19,17,A17,15,D15,0\C,20,B20,19,A18,17,D
 16,0\H,21,B21,20,A19,19,D17,0\H,21,B22,20,A20,19,D18,0\H,21,B23,20,A21
 ,19,D19,0\C,19,B24,17,A22,15,D20,0\H,25,B25,19,A23,17,D21,0\C,25,B26,1
 9,A24,17,D22,0\H,27,B27,25,A25,19,D23,0\C,9,B28,7,A26,5,D24,0\O,29,B29
 ,9,A27,7,D25,0\N,29,B30,9,A28,7,D26,0\H,31,B31,29,A29,9,D27,0\C,31,B32
 ,29,A30,9,D28,0\H,33,B33,31,A31,29,D29,0\H,33,B34,31,A32,29,D30,0\H,33
 ,B35,31,A33,29,D31,0\\B1=1.08532665\B2=1.08511602\B3=1.07939694\B4=1.5
 1437743\B5=1.20348699\B6=1.35045491\B7=0.99577994\B8=1.44261615\B9=1.0
 8147227\B10=1.54777805\B11=1.08295596\B12=1.08510255\B13=1.51318068\B1
 4=1.38242224\B15=1.07643051\B16=1.39206861\B17=1.07274936\B18=1.383930
 04\B19=1.34874612\B20=1.39881348\B21=1.08516143\B22=1.07959607\B23=1.0
 8490546\B24=1.3943009\B25=1.07420775\B26=1.37660405\B27=1.07687397\B28
 =1.52675711\B29=1.20566386\B30=1.34328342\B31=0.99421537\B32=1.4476735
 1\B33=1.08493275\B34=1.0796281\B35=1.08167453\A1=107.94458341\A2=109.9
 015755\A3=122.65719127\A4=114.95710046\A5=121.33254465\A6=122.14790492
 \A7=108.2341023\A8=111.29782302\A9=106.32703435\A10=108.43422948\A11=1
 14.38671416\A12=122.07419172\A13=119.59501662\A14=121.91606828\A15=119
 .10930647\A16=119.60924761\A17=124.80371515\A18=119.71804727\A19=111.4
 6566029\A20=106.24903518\A21=111.43267767\A22=119.33345829\A23=118.569
 14133\A24=120.21532215\A25=119.19675882\A26=106.99890099\A27=120.76554
 478\A28=116.14564973\A29=118.21155373\A30=121.59054382\A31=111.8947349
 6\A32=109.57608613\A33=108.69037664\D1=-119.85016098\D2=180.24397136\D
 3=179.83307174\D4=-0.83506916\D5=-38.16252198\D6=81.52780053\D7=-48.90
 983196\D8=66.24543893\D9=-169.96230179\D10=-107.23573218\D11=-0.594527
 33\D12=179.5393712\D13=179.7534293\D14=-0.05231151\D15=180.14552154\D1
 6=-2.04593324\D17=62.38879967\D18=181.15569178\D19=-60.0190739\D20=0.1
 5706002\D21=-180.62506635\D22=0.07827899\D23=178.95617776\D24=203.2553
 5835\D25=-30.6123945\D26=149.33026369\D27=9.5435979\D28=173.05728821\D
 29=-73.3526955\D30=47.11449593\D31=166.23469557\\Version=AM64L-G09RevD
 .01\State=1-A\HF=-836.2877701\RMSD=4.106e-09\RMSF=4.156e-04\Dipole=0.2
 424398,-1.3626004,0.148621\Quadrupole=-5.1798852,8.5187036,-3.3388184,
 5.881576,-4.4368825,5.2672938\PG=C01 [X(C13H18N2O3)]\\@


 WHEN ALL ELSE FAILS, LOOK AT THE SCHRODINGER EQUATION.
     -- RUSSELL T. PACK, APRIL 1978
 Job cpu time:       0 days  3 hours 53 minutes 46.3 seconds.
 File lengths (MBytes):  RWF=     59 Int=      0 D2E=      0 Chk=      7 Scr=      1
 Normal termination of Gaussian 09 at Sun May 15 23:22:36 2016.
