 Entering Gaussian System, Link 0=/programs/g09/g09
 Input=/scratch2/Wise/temp/temp_05162016/tyrosine_OCH3_q.com
 Output=/scratch2/Wise/temp/temp_05162016/tyrosine_OCH3_q.log
 Initial command:
 /programs/g09/l1.exe "/tmp/Wise/tyrosine_OCH3_q/Gau-20084.inp" -scrdir="/tmp/Wise/tyrosine_OCH3_q/"
 Entering Link 1 = /programs/g09/l1.exe PID=     20085.
  
 Copyright (c) 1988,1990,1992,1993,1995,1998,2003,2009,2013,
            Gaussian, Inc.  All Rights Reserved.
  
 This is part of the Gaussian(R) 09 program.  It is based on
 the Gaussian(R) 03 system (copyright 2003, Gaussian, Inc.),
 the Gaussian(R) 98 system (copyright 1998, Gaussian, Inc.),
 the Gaussian(R) 94 system (copyright 1995, Gaussian, Inc.),
 the Gaussian 92(TM) system (copyright 1992, Gaussian, Inc.),
 the Gaussian 90(TM) system (copyright 1990, Gaussian, Inc.),
 the Gaussian 88(TM) system (copyright 1988, Gaussian, Inc.),
 the Gaussian 86(TM) system (copyright 1986, Carnegie Mellon
 University), and the Gaussian 82(TM) system (copyright 1983,
 Carnegie Mellon University). Gaussian is a federally registered
 trademark of Gaussian, Inc.
  
 This software contains proprietary and confidential information,
 including trade secrets, belonging to Gaussian, Inc.
  
 This software is provided under written license and may be
 used, copied, transmitted, or stored only in accord with that
 written license.
  
 The following legend is applicable only to US Government
 contracts under FAR:
  
                    RESTRICTED RIGHTS LEGEND
  
 Use, reproduction and disclosure by the US Government is
 subject to restrictions as set forth in subparagraphs (a)
 and (c) of the Commercial Computer Software - Restricted
 Rights clause in FAR 52.227-19.
  
 Gaussian, Inc.
 340 Quinnipiac St., Bldg. 40, Wallingford CT 06492
  
  
 ---------------------------------------------------------------
 Warning -- This program may not be used in any manner that
 competes with the business of Gaussian, Inc. or will provide
 assistance to any competitor of Gaussian, Inc.  The licensee
 of this program is prohibited from giving any competitor of
 Gaussian, Inc. access to this program.  By using this program,
 the user acknowledges that Gaussian, Inc. is engaged in the
 business of creating and licensing software in the field of
 computational chemistry and represents and warrants to the
 licensee that it is not a competitor of Gaussian, Inc. and that
 it will not use this program in any manner prohibited above.
 ---------------------------------------------------------------
  

 Cite this work as:
 Gaussian 09, Revision D.01,
 M. J. Frisch, G. W. Trucks, H. B. Schlegel, G. E. Scuseria, 
 M. A. Robb, J. R. Cheeseman, G. Scalmani, V. Barone, B. Mennucci, 
 G. A. Petersson, H. Nakatsuji, M. Caricato, X. Li, H. P. Hratchian, 
 A. F. Izmaylov, J. Bloino, G. Zheng, J. L. Sonnenberg, M. Hada, 
 M. Ehara, K. Toyota, R. Fukuda, J. Hasegawa, M. Ishida, T. Nakajima, 
 Y. Honda, O. Kitao, H. Nakai, T. Vreven, J. A. Montgomery, Jr., 
 J. E. Peralta, F. Ogliaro, M. Bearpark, J. J. Heyd, E. Brothers, 
 K. N. Kudin, V. N. Staroverov, T. Keith, R. Kobayashi, J. Normand, 
 K. Raghavachari, A. Rendell, J. C. Burant, S. S. Iyengar, J. Tomasi, 
 M. Cossi, N. Rega, J. M. Millam, M. Klene, J. E. Knox, J. B. Cross, 
 V. Bakken, C. Adamo, J. Jaramillo, R. Gomperts, R. E. Stratmann, 
 O. Yazyev, A. J. Austin, R. Cammi, C. Pomelli, J. W. Ochterski, 
 R. L. Martin, K. Morokuma, V. G. Zakrzewski, G. A. Voth, 
 P. Salvador, J. J. Dannenberg, S. Dapprich, A. D. Daniels, 
 O. Farkas, J. B. Foresman, J. V. Ortiz, J. Cioslowski, 
 and D. J. Fox, Gaussian, Inc., Wallingford CT, 2013.
 
 ******************************************
 Gaussian 09:  AM64L-G09RevD.01 24-Apr-2013
                16-May-2016 
 ******************************************
 %mem=8GB
 %nproc=8
 Will use up to    8 processors via shared memory.
 --------------------------------------------
 # HF/6-31G* scf=tight iop(6/33=2) pop=chelpg
 --------------------------------------------
 1/38=1/1;
 2/12=2,17=6,18=5,40=1/2;
 3/5=1,6=6,7=1,11=9,16=1,25=1,30=1/1,2,3;
 4//1;
 5/5=2,32=2,38=5/2;
 6/7=2,8=2,9=2,10=2,15=8,20=3,28=1,33=2/1,2;
 99/5=1,9=1/99;
 -------------------
 Title Card Required
 -------------------
 Symbolic Z-matrix:
 Charge =  0 Multiplicity = 1
 C
 H                    1    B1
 H                    1    B2       2    A1
 H                    1    B3       3    A2       2    D1       0
 C                    1    B4       4    A3       3    D2       0
 O                    5    B5       1    A4       4    D3       0
 N                    5    B6       1    A5       6    D4       0
 H                    7    B7       5    A6       1    D5       0
 C                    7    B8       5    A7       1    D6       0
 H                    9    B9       7    A8       5    D7       0
 C                    9    B10      7    A9       5    D8       0
 H                    11   B11      9    A10      7    D9       0
 H                    11   B12      9    A11      7    D10      0
 C                    11   B13      9    A12      7    D11      0
 C                    14   B14      11   A13      9    D12      0
 H                    15   B15      14   A14      11   D13      0
 C                    15   B16      14   A15      11   D14      0
 H                    17   B17      15   A16      14   D15      0
 C                    17   B18      15   A17      14   D16      0
 O                    19   B19      17   A18      15   D17      0
 C                    20   B20      19   A19      17   D18      0
 H                    21   B21      20   A20      19   D19      0
 H                    21   B22      20   A21      19   D20      0
 H                    21   B23      20   A22      19   D21      0
 C                    19   B24      17   A23      15   D22      0
 H                    25   B25      19   A24      17   D23      0
 C                    25   B26      19   A25      17   D24      0
 H                    27   B27      25   A26      19   D25      0
 C                    9    B28      7    A27      5    D26      0
 O                    29   B29      9    A28      7    D27      0
 N                    29   B30      9    A29      7    D28      0
 H                    31   B31      29   A30      9    D29      0
 C                    31   B32      29   A31      9    D30      0
 H                    33   B33      31   A32      29   D31      0
 H                    33   B34      31   A33      29   D32      0
 H                    33   B35      31   A34      29   D33      0
       Variables:
  B1                    1.08533                  
  B2                    1.08512                  
  B3                    1.0794                   
  B4                    1.51438                  
  B5                    1.20349                  
  B6                    1.35046                  
  B7                    0.99578                  
  B8                    1.44262                  
  B9                    1.08147                  
  B10                   1.54778                  
  B11                   1.08296                  
  B12                   1.0851                   
  B13                   1.51318                  
  B14                   1.38242                  
  B15                   1.07643                  
  B16                   1.39207                  
  B17                   1.07275                  
  B18                   1.38393                  
  B19                   1.34875                  
  B20                   1.39881                  
  B21                   1.08516                  
  B22                   1.0796                   
  B23                   1.08491                  
  B24                   1.3943                   
  B25                   1.07421                  
  B26                   1.3766                   
  B27                   1.07687                  
  B28                   1.52676                  
  B29                   1.20566                  
  B30                   1.34328                  
  B31                   0.99422                  
  B32                   1.44767                  
  B33                   1.08493                  
  B34                   1.07963                  
  B35                   1.08167                  
  A1                  107.94462                  
  A2                  109.89912                  
  A3                  109.37736                  
  A4                  122.65724                  
  A5                  114.95707                  
  A6                  121.33254                  
  A7                  122.14789                  
  A8                  108.23415                  
  A9                  111.2978                   
  A10                 106.32705                  
  A11                 108.43422                  
  A12                 114.38673                  
  A13                 122.07419                  
  A14                 119.59503                  
  A15                 121.91606                  
  A16                 119.10929                  
  A17                 119.60925                  
  A18                 124.80373                  
  A19                 119.71801                  
  A20                 111.46573                  
  A21                 106.24898                  
  A22                 111.43263                  
  A23                 119.33349                  
  A24                 118.5692                   
  A25                 120.21534                  
  A26                 119.19678                  
  A27                 106.9989                   
  A28                 120.76557                  
  A29                 116.14564                  
  A30                 118.21153                  
  A31                 121.59055                  
  A32                 111.89475                  
  A33                 109.57611                  
  A34                 108.6904                   
  D1                  119.85179                  
  D2                 -121.13945                  
  D3                   -0.78638                  
  D4                 -179.7561                   
  D5                   -0.41006                  
  D6                  178.92168                  
  D7                  -38.16242                  
  D8                   81.52787                  
  D9                  -48.90985                  
  D10                  66.24542                  
  D11                -169.96231                  
  D12                -107.2357                   
  D13                  -0.5946                   
  D14                 179.53938                  
  D15                 179.75337                  
  D16                  -0.05236                  
  D17                -179.85448                  
  D18                  -2.04587                  
  D19                  62.38874                  
  D20                -178.84431                  
  D21                 -60.01913                  
  D22                   0.15706                  
  D23                 179.3749                   
  D24                   0.07831                  
  D25                 178.95613                  
  D26                -156.74461                  
  D27                 -30.61235                  
  D28                 149.33032                  
  D29                   9.54357                  
  D30                 173.0573                   
  D31                 -73.35273                  
  D32                  47.11448                  
  D33                 166.23464                  
 
                          Input orientation:                          
 ---------------------------------------------------------------------
 Center     Atomic      Atomic             Coordinates (Angstroms)
 Number     Number       Type             X           Y           Z
 ---------------------------------------------------------------------
      1          6           0        0.000000    0.000000    0.000000
      2          1           0        0.000000    0.000000    1.085327
      3          1           0        1.032330    0.000000   -0.334322
      4          1           0       -0.505168    0.880282   -0.367432
      5          6           0       -0.713885   -1.236484   -0.504792
      6          8           0       -1.698733   -1.181750   -1.194327
      7          7           0       -0.165362   -2.408614   -0.118831
      8          1           0        0.651491   -2.435624    0.450027
      9          6           0       -0.732649   -3.681407   -0.492092
     10          1           0       -1.810110   -3.594395   -0.459110
     11          6           0       -0.305034   -4.089699   -1.922498
     12          1           0       -0.487166   -3.227804   -2.552385
     13          1           0        0.764987   -4.269984   -1.922440
     14          6           0       -1.043972   -5.287920   -2.477432
     15          6           0       -0.440207   -6.523989   -2.614154
     16          1           0        0.590383   -6.646730   -2.328635
     17          6           0       -1.125922   -7.626478   -3.116319
     18          1           0       -0.612040   -8.563764   -3.206937
     19          6           0       -2.451286   -7.494354   -3.492103
     20          8           0       -3.214065   -8.490459   -3.987140
     21          6           0       -2.655075   -9.756557   -4.190131
     22          1           0       -2.316703  -10.195479   -3.257164
     23          1           0       -3.440122  -10.370313   -4.605501
     24          1           0       -1.826254   -9.716560   -4.889042
     25          6           0       -3.077340   -6.255123   -3.363893
     26          1           0       -4.103328   -6.163915   -3.668771
     27          6           0       -2.381298   -5.175145   -2.869712
     28          1           0       -2.875934   -4.221634   -2.793505
     29          6           0       -0.257722   -4.701585    0.539735
     30          8           0        0.809851   -4.575439    1.085629
     31          7           0       -1.093417   -5.722954    0.790398
     32          1           0       -1.886087   -5.837099    0.201238
     33          6           0       -0.702572   -6.833318    1.633065
     34          1           0        0.004242   -7.489304    1.135897
     35          1           0       -0.246406   -6.458426    2.536927
     36          1           0       -1.586791   -7.400032    1.891929
 ---------------------------------------------------------------------
                    Distance matrix (angstroms):
                    1          2          3          4          5
     1  C    0.000000
     2  H    1.085327   0.000000
     3  H    1.085116   1.755308   0.000000
     4  H    1.079397   1.772174   1.771974   0.000000
     5  C    1.514378   2.137055   2.146443   2.131462   0.000000
     6  O    2.389277   3.078807   3.097555   2.521969   1.203487
     7  N    2.417206   2.697918   2.698578   3.315736   1.350456
     8  H    2.561099   2.600060   2.586988   3.605736   2.052770
     9  C    3.785721   4.071582   4.085682   4.569058   2.445027
    10  H    4.050551   4.310622   4.584181   4.661976   2.600681
    11  C    4.529314   5.085833   4.586555   5.211429   3.212146
    12  H    4.143756   4.887637   4.200879   4.653032   2.865203
    13  H    4.744865   5.278696   4.563590   5.527801   3.660451
    14  C    5.932086   6.461054   6.071742   6.541339   4.518229
    15  C    7.042018   7.512814   7.066006   7.737907   5.699299
    16  H    7.067539   7.495512   6.953533   7.855091   5.856473
    17  C    8.315185   8.779789   8.400043   8.961399   6.915335
    18  H    9.164992   9.598759   9.181172   9.862262   7.810312
    19  C    8.623742   9.117401   8.847175   9.147976   7.148672
    20  O    9.915411  10.399424  10.171668  10.404383   8.426019
    21  C   10.945183  11.404836  11.120010  11.505541   9.483754
    22  H   10.950983  11.321313  11.122357  11.588990   9.508321
    23  H   11.857001  12.319227  12.074320  12.375422  10.376657
    24  H   11.029482  11.551616  11.105337  11.596693   9.610967
    25  C    7.740307   8.269954   8.074296   8.155296   6.240762
    26  H    8.263839   8.799580   8.688348   8.571249   6.765994
    27  C    6.378711   6.935059   6.697999   6.815385   4.887347
    28  H    5.822101   6.413932   6.256541   6.126655   4.338638
    29  C    4.739476   4.740147   4.953091   5.660514   3.647745
    30  O    4.771697   4.646558   4.795873   5.797030   3.999978
    31  N    5.879838   5.833930   6.207737   6.729735   4.685080
    32  H    6.137552   6.197634   6.547954   6.881390   4.799812
    33  C    7.060789   6.891143   7.319476   7.971234   5.991252
    34  H    7.574956   7.489476   7.701181   8.518772   6.504254
    35  H    6.943197   6.624132   7.182653   7.896765   6.061293
    36  H    7.801139   7.611110   8.159440   8.650909   6.670499
                    6          7          8          9         10
     6  O    0.000000
     7  N    2.238999   0.000000
     8  H    3.130440   0.995780   0.000000
     9  C    2.770332   1.442616   2.086961   0.000000
    10  H    2.524640   2.055983   2.868582   1.081472   0.000000
    11  C    3.305874   2.469569   3.046273   1.547778   2.156869
    12  H    2.738349   2.587820   3.307350   2.123870   2.503272
    13  H    4.017120   2.753771   3.001059   2.152959   3.037907
    14  C    4.351517   3.824311   4.424952   2.572816   2.743832
    15  C    5.669155   4.820632   5.224533   3.559346   3.886305
    16  H    6.032637   4.839009   5.045603   3.730475   4.309783
    17  C    6.749569   6.093744   6.543927   4.754452   4.877147
    18  H    7.728236   6.900854   7.247344   5.587695   5.803494
    19  C    6.759814   6.516837   7.124490   5.147071   4.981950
    20  O    7.969521   7.826062   8.443459   6.442031   6.195927
    21  C    9.133277   8.761645   9.276880   7.367406   7.253049
    22  H    9.267389   8.666757   9.097736   7.251758   7.187493
    23  H    9.954810   9.707879  10.259579   8.306143   8.109412
    24  H    9.301084   8.883668   9.362527   7.546669   7.556815
    25  C    5.687415   5.814265   6.560392   4.513184   4.138007
    26  H    6.060275   6.497072   7.312521   5.255057   4.707781
    27  C    4.384064   4.486805   5.265307   3.256129   2.938712
    28  H    3.630987   4.217597   5.114006   3.190927   2.641743
    29  C    4.180039   2.387459   2.443214   1.526757   2.152550
    30  O    4.796699   2.664000   2.237828   2.380715   3.195757
    31  N    4.992802   3.559893   3.737257   2.437796   2.570152
    32  H    4.863639   3.849396   4.251027   2.541286   2.339135
    33  C    6.397398   4.789127   4.751081   3.801544   4.011789
    34  H    6.936520   5.236079   5.140917   4.206357   4.583256
    35  H    6.623808   4.843615   4.619990   4.138022   4.429908
    36  H    6.942949   5.565777   5.633324   4.499032   4.478853
                   11         12         13         14         15
    11  C    0.000000
    12  H    1.082956   0.000000
    13  H    1.085102   1.746670   0.000000
    14  C    1.513180   2.135352   2.148614   0.000000
    15  C    2.534251   3.297098   2.647924   1.382423   0.000000
    16  H    2.739548   3.591689   2.417520   2.130638   1.076430
    17  C    3.822024   4.480442   4.033229   2.425643   1.392069
    18  H    4.664900   5.377406   4.688569   3.383769   2.131103
    19  C    4.319923   4.790020   4.817138   2.806856   2.399342
    20  O    5.664971   6.098363   6.156967   4.152683   3.666930
    21  C    6.540500   7.071539   6.851404   5.049526   4.223605
    22  H    6.565721   7.238261   6.811006   5.129519   4.173073
    23  H    7.514879   7.996917   7.880088   6.008405   5.268696
    24  H    6.540341   7.025459   6.721640   5.103007   4.157974
    25  C    3.801626   4.065982   4.558732   2.419892   2.754790
    26  H    4.666786   4.789959   5.507917   3.397987   3.828881
    27  C    2.527110   2.735064   3.408189   1.398229   2.377504
    28  H    2.717644   2.598471   3.743981   2.143117   3.356452
    29  C    2.537564   3.433057   2.700837   3.172582   3.647119
    30  O    3.244647   4.090662   3.023871   4.079178   4.364389
    31  N    3.263261   4.215152   3.595035   3.297031   3.557993
    32  H    3.172284   4.043246   3.740863   2.861124   3.238644
    33  C    4.508603   5.528482   4.622340   4.404656   4.266542
    34  H    4.583311   5.657322   4.505128   4.359013   3.897723
    35  H    5.049829   6.032909   5.069335   5.210566   5.155143
    36  H    5.210667   6.194238   5.466029   4.883338   4.731478
                   16         17         18         19         20
    16  H    0.000000
    17  C    2.127452   0.000000
    18  H    2.427396   1.072749   0.000000
    19  C    3.365096   1.383930   2.146575   0.000000
    20  O    4.541343   2.421804   2.717466   1.348747   0.000000
    21  C    4.865099   2.833482   2.561917   2.376202   1.398814
    22  H    4.680484   2.835060   2.360274   2.714662   2.060393
    23  H    5.940889   3.886106   3.635609   3.238610   1.991815
    24  H    4.671153   2.828684   2.373338   2.698204   2.059799
    25  C    3.831097   2.397903   3.381148   1.394301   2.324620
    26  H    4.905099   3.362922   4.261650   2.128502   2.510966
    27  C    3.359942   2.765107   3.837542   2.402290   3.596310
    28  H    4.255883   3.841837   4.914289   3.373286   4.445443
    29  C    3.567971   4.761880   5.392543   5.372802   6.602130
    30  O    3.999451   5.541879   6.029480   6.333302   7.566523
    31  N    3.662910   4.345906   4.927536   4.829231   5.914482
    32  H    3.631620   3.845245   4.546818   4.087384   5.132870
    33  C    4.171523   4.833733   5.140842   5.455485   6.374983
    34  H    3.613374   4.401980   4.516024   5.239086   6.132317
    35  H    4.940584   5.839271   6.128467   6.502603   7.449806
    36  H    4.808399   5.034503   5.320041   5.453810   6.196814
                   21         22         23         24         25
    21  C    0.000000
    22  H    1.085161   0.000000
    23  H    1.079596   1.763703   0.000000
    24  H    1.084906   1.770008   1.764188   0.000000
    25  C    3.622295   4.014520   4.313698   3.984074   0.000000
    26  H    3.908494   4.428878   4.360170   4.392654   1.074208
    27  C    4.775751   5.035677   5.578874   5.001021   1.376605
    28  H    5.712680   6.017853   6.434897   5.973886   2.121552
    29  C    7.326096   6.988471   8.290694   7.555255   5.059846
    30  O    8.165987   7.760158   9.166886   8.311249   6.142462
    31  N    6.596544   6.154890   7.498046   6.981545   4.634359
    32  H    5.936128   5.580453   6.787473   6.400371   3.782061
    33  C    6.802000   6.150113   7.676211   7.218976   5.562681
    34  H    6.370162   5.657663   7.288861   6.679166   5.591731
    35  H    7.869731   7.198833   8.747397   8.261741   6.547916
    36  H    6.609530   5.904274   7.380650   7.169742   5.581775
                   26         27         28         29         30
    26  H    0.000000
    27  C    2.140455   0.000000
    28  H    2.458668   1.076873   0.000000
    29  C    5.885459   4.044523   4.265662   0.000000
    30  O    7.019039   5.117402   5.362636   1.205664   0.000000
    31  N    5.397981   3.918563   4.275007   1.343284   2.241960
    32  H    4.472129   3.180275   3.543728   2.013839   3.105160
    33  C    6.334249   5.083567   5.580225   2.436708   2.772206
    34  H    6.458608   5.204905   5.866283   2.862763   3.023598
    35  H    7.312543   5.952842   6.350682   2.659962   2.601459
    36  H    6.227546   5.315504   5.806668   3.297949   3.791087
                   31         32         33         34         35
    31  N    0.000000
    32  H    0.994215   0.000000
    33  C    1.447673   2.107911   0.000000
    34  H    2.108131   2.678939   1.084933   0.000000
    35  H    2.075744   2.920624   1.079629   1.757390   0.000000
    36  H    2.066248   2.321804   1.081674   1.763785   1.760476
                   36
    36  H    0.000000
 Stoichiometry    C13H18N2O3
 Framework group  C1[X(C13H18N2O3)]
 Deg. of freedom   102
 Full point group                 C1      NOp   1
 Largest Abelian subgroup         C1      NOp   1
 Largest concise Abelian subgroup C1      NOp   1
                         Standard orientation:                         
 ---------------------------------------------------------------------
 Center     Atomic      Atomic             Coordinates (Angstroms)
 Number     Number       Type             X           Y           Z
 ---------------------------------------------------------------------
      1          6           0        5.231142   -1.255409    0.169086
      2          1           0        5.738238   -0.421694   -0.306001
      3          1           0        5.359363   -1.157160    1.242111
      4          1           0        5.659819   -2.186776   -0.168389
      5          6           0        3.759816   -1.220990   -0.187782
      6          8           0        3.212285   -2.118961   -0.772794
      7          7           0        3.106557   -0.102876    0.195368
      8          1           0        3.574710    0.629642    0.680989
      9          6           0        1.706573    0.102610   -0.085632
     10          1           0        1.498222   -0.289629   -1.071695
     11          6           0        0.813051   -0.628623    0.945161
     12          1           0        1.192657   -1.640564    1.013485
     13          1           0        0.956429   -0.163194    1.914834
     14          6           0       -0.656460   -0.662002    0.585803
     15          6           0       -1.592428    0.108132    1.250596
     16          1           0       -1.278195    0.748207    2.056985
     17          6           0       -2.942194    0.081898    0.911039
     18          1           0       -3.630374    0.695185    1.459745
     19          6           0       -3.371934   -0.733969   -0.120923
     20          8           0       -4.650228   -0.838682   -0.538197
     21          6           0       -5.654723   -0.118638    0.116941
     22          1           0       -5.494330    0.951445    0.034651
     23          1           0       -6.580714   -0.376287   -0.374674
     24          1           0       -5.719317   -0.392050    1.164841
     25          6           0       -2.443428   -1.520015   -0.802159
     26          1           0       -2.791930   -2.156350   -1.594337
     27          6           0       -1.113459   -1.484206   -0.448690
     28          1           0       -0.413078   -2.110705   -0.974638
     29          6           0        1.462460    1.609490   -0.059006
     30          8           0        2.117630    2.327894    0.653927
     31          7           0        0.491264    2.066164   -0.866867
     32          1           0       -0.098298    1.402595   -1.314703
     33          6           0        0.059838    3.447519   -0.828321
     34          1           0       -0.528815    3.662958    0.057203
     35          1           0        0.922781    4.096287   -0.833592
     36          1           0       -0.538935    3.648283   -1.706492
 ---------------------------------------------------------------------
 Rotational constants (GHZ):      0.7240690      0.2107945      0.1769907
 Standard basis: 6-31G(d) (6D, 7F)
 There are   306 symmetry adapted cartesian basis functions of A   symmetry.
 There are   306 symmetry adapted basis functions of A   symmetry.
   306 basis functions,   576 primitive gaussians,   306 cartesian basis functions
    67 alpha electrons       67 beta electrons
       nuclear repulsion energy      1321.5270151909 Hartrees.
 NAtoms=   36 NActive=   36 NUniq=   36 SFac= 1.00D+00 NAtFMM=   60 NAOKFM=F Big=F
 Integral buffers will be    131072 words long.
 Raffenetti 1 integral format.
 Two-electron integral symmetry is turned on.
 One-electron integrals computed using PRISM.
 NBasis=   306 RedAO= T EigKep=  3.96D-04  NBF=   306
 NBsUse=   306 1.00D-06 EigRej= -1.00D+00 NBFU=   306
 ExpMin= 1.61D-01 ExpMax= 5.48D+03 ExpMxC= 8.25D+02 IAcc=1 IRadAn=         1 AccDes= 0.00D+00
 Harris functional with IExCor=  205 and IRadAn=       1 diagonalized for initial guess.
 HarFok:  IExCor=  205 AccDes= 0.00D+00 IRadAn=         1 IDoV= 1 UseB2=F ITyADJ=14
 ICtDFT=  3500011 ScaDFX=  1.000000  1.000000  1.000000  1.000000
 FoFCou: FMM=F IPFlag=           0 FMFlag=      100000 FMFlg1=           0
         NFxFlg=           0 DoJE=T BraDBF=F KetDBF=T FulRan=T
         wScrn=  0.000000 ICntrl=     500 IOpCl=  0 I1Cent=   200000004 NGrid=           0
         NMat0=    1 NMatS0=      1 NMatT0=    0 NMatD0=    1 NMtDS0=    0 NMtDT0=    0
 Petite list used in FoFCou.
 Requested convergence on RMS density matrix=1.00D-08 within 128 cycles.
 Requested convergence on MAX density matrix=1.00D-06.
 Requested convergence on             energy=1.00D-06.
 No special actions if energy rises.
 Integral accuracy reduced to 1.0D-05 until final iterations.
 Initial convergence to 1.0D-05 achieved.  Increase integral accuracy.
 SCF Done:  E(RHF) =  -836.287770082     A.U. after   15 cycles
            NFock= 15  Conv=0.99D-08     -V/T= 2.0013

 **********************************************************************

            Population analysis using the SCF density.

 **********************************************************************

 Orbital symmetries:
 BldTbl:  Degeneracy threshold= 1.00D-02
       Occupied  (A) (A) (A) (A) (A) (A) (A) (A) (A) (A) (A) (A)
                 (A) (A) (A) (A) (A) (A) (A) (A) (A) (A) (A) (A)
                 (A) (A) (A) (A) (A) (A) (A) (A) (A) (A) (A) (A)
                 (A) (A) (A) (A) (A) (A) (A) (A) (A) (A) (A) (A)
                 (A) (A) (A) (A) (A) (A) (A) (A) (A) (A) (A) (A)
                 (A) (A) (A) (A) (A) (A) (A)
       Virtual   (A) (A) (A) (A) (A) (A) (A) (A) (A) (A) (A) (A)
                 (A) (A) (A) (A) (A) (A) (A) (A) (A) (A) (A) (A)
                 (A) (A) (A) (A) (A) (A) (A) (A) (A) (A) (A) (A)
                 (A) (A) (A) (A) (A) (A) (A) (A) (A) (A) (A) (A)
                 (A) (A) (A) (A) (A) (A) (A) (A) (A) (A) (A) (A)
                 (A) (A) (A) (A) (A) (A) (A) (A) (A) (A) (A) (A)
                 (A) (A) (A) (A) (A) (A) (A) (A) (A) (A) (A) (A)
                 (A) (A) (A) (A) (A) (A) (A) (A) (A) (A) (A) (A)
                 (A) (A) (A) (A) (A) (A) (A) (A) (A) (A) (A) (A)
                 (A) (A) (A) (A) (A) (A) (A) (A) (A) (A) (A) (A)
                 (A) (A) (A) (A) (A) (A) (A) (A) (A) (A) (A) (A)
                 (A) (A) (A) (A) (A) (A) (A) (A) (A) (A) (A) (A)
                 (A) (A) (A) (A) (A) (A) (A) (A) (A) (A) (A) (A)
                 (A) (A) (A) (A) (A) (A) (A) (A) (A) (A) (A) (A)
                 (A) (A) (A) (A) (A) (A) (A) (A) (A) (A) (A) (A)
                 (A) (A) (A) (A) (A) (A) (A) (A) (A) (A) (A) (A)
                 (A) (A) (A) (A) (A) (A) (A) (A) (A) (A) (A) (A)
                 (A) (A) (A) (A) (A) (A) (A) (A) (A) (A) (A) (A)
                 (A) (A) (A) (A) (A) (A) (A) (A) (A) (A) (A) (A)
                 (A) (A) (A) (A) (A) (A) (A) (A) (A) (A) (A)
 The electronic state is 1-A.
 Alpha  occ. eigenvalues --  -20.59236 -20.53017 -20.51809 -15.59004 -15.57666
 Alpha  occ. eigenvalues --  -11.35003 -11.34349 -11.30138 -11.28603 -11.27785
 Alpha  occ. eigenvalues --  -11.26026 -11.23981 -11.23762 -11.23521 -11.23257
 Alpha  occ. eigenvalues --  -11.23239 -11.22872 -11.22789  -1.42163  -1.39990
 Alpha  occ. eigenvalues --   -1.38460  -1.23915  -1.23373  -1.16044  -1.07269
 Alpha  occ. eigenvalues --   -1.02825  -1.02126  -0.98710  -0.96789  -0.93768
 Alpha  occ. eigenvalues --   -0.88043  -0.84112  -0.79989  -0.79907  -0.78156
 Alpha  occ. eigenvalues --   -0.72966  -0.72483  -0.68171  -0.66946  -0.66331
 Alpha  occ. eigenvalues --   -0.65684  -0.65057  -0.63428  -0.63049  -0.62211
 Alpha  occ. eigenvalues --   -0.61145  -0.60551  -0.59172  -0.58405  -0.57450
 Alpha  occ. eigenvalues --   -0.56806  -0.55817  -0.55526  -0.54178  -0.53072
 Alpha  occ. eigenvalues --   -0.52326  -0.51609  -0.50468  -0.49351  -0.47996
 Alpha  occ. eigenvalues --   -0.46447  -0.42703  -0.41369  -0.39688  -0.38228
 Alpha  occ. eigenvalues --   -0.34405  -0.30664
 Alpha virt. eigenvalues --    0.13418   0.15168   0.19198   0.21352   0.23050
 Alpha virt. eigenvalues --    0.23544   0.24141   0.25178   0.26245   0.28175
 Alpha virt. eigenvalues --    0.28941   0.30000   0.30339   0.30900   0.31402
 Alpha virt. eigenvalues --    0.31597   0.32139   0.32434   0.33012   0.33524
 Alpha virt. eigenvalues --    0.34445   0.34695   0.36320   0.36821   0.37843
 Alpha virt. eigenvalues --    0.40497   0.40993   0.42867   0.45722   0.47030
 Alpha virt. eigenvalues --    0.47855   0.50094   0.51452   0.52526   0.53097
 Alpha virt. eigenvalues --    0.53749   0.57104   0.59636   0.62271   0.67464
 Alpha virt. eigenvalues --    0.70939   0.71756   0.72312   0.73175   0.73764
 Alpha virt. eigenvalues --    0.74223   0.75467   0.76145   0.76659   0.77193
 Alpha virt. eigenvalues --    0.78506   0.79710   0.80693   0.82037   0.82992
 Alpha virt. eigenvalues --    0.83362   0.83526   0.84316   0.85531   0.86582
 Alpha virt. eigenvalues --    0.88502   0.88940   0.89808   0.91313   0.93191
 Alpha virt. eigenvalues --    0.94437   0.95339   0.97565   0.98626   0.99416
 Alpha virt. eigenvalues --    1.00525   1.01152   1.03051   1.03390   1.06172
 Alpha virt. eigenvalues --    1.06906   1.07505   1.09685   1.10591   1.12051
 Alpha virt. eigenvalues --    1.12166   1.12926   1.13043   1.13332   1.13998
 Alpha virt. eigenvalues --    1.14764   1.14990   1.16043   1.16791   1.18123
 Alpha virt. eigenvalues --    1.18147   1.18731   1.19291   1.19984   1.20276
 Alpha virt. eigenvalues --    1.20683   1.22048   1.22426   1.23234   1.24078
 Alpha virt. eigenvalues --    1.24769   1.26184   1.27475   1.29732   1.31078
 Alpha virt. eigenvalues --    1.33551   1.35070   1.37014   1.37543   1.40324
 Alpha virt. eigenvalues --    1.41462   1.42083   1.45547   1.46337   1.47392
 Alpha virt. eigenvalues --    1.49635   1.51080   1.55704   1.56263   1.59301
 Alpha virt. eigenvalues --    1.61891   1.62626   1.63684   1.65669   1.67834
 Alpha virt. eigenvalues --    1.68443   1.69702   1.72003   1.72558   1.73057
 Alpha virt. eigenvalues --    1.75037   1.77738   1.78436   1.79234   1.80222
 Alpha virt. eigenvalues --    1.80982   1.83404   1.89578   1.93984   1.96621
 Alpha virt. eigenvalues --    1.98247   2.01997   2.04628   2.05751   2.08218
 Alpha virt. eigenvalues --    2.10523   2.11968   2.12958   2.14258   2.15002
 Alpha virt. eigenvalues --    2.15745   2.15877   2.17740   2.19218   2.19874
 Alpha virt. eigenvalues --    2.22458   2.23035   2.26959   2.27168   2.27967
 Alpha virt. eigenvalues --    2.29957   2.31499   2.33193   2.34343   2.35722
 Alpha virt. eigenvalues --    2.37322   2.38490   2.39331   2.41197   2.42355
 Alpha virt. eigenvalues --    2.43614   2.45384   2.46118   2.47021   2.48623
 Alpha virt. eigenvalues --    2.49846   2.51157   2.54035   2.54593   2.57276
 Alpha virt. eigenvalues --    2.58810   2.59135   2.62907   2.64182   2.66345
 Alpha virt. eigenvalues --    2.69180   2.70383   2.70807   2.73233   2.73636
 Alpha virt. eigenvalues --    2.75685   2.77013   2.81615   2.82636   2.84640
 Alpha virt. eigenvalues --    2.86642   2.89809   2.91121   2.96915   2.97715
 Alpha virt. eigenvalues --    3.00148   3.02993   3.03786   3.04122   3.06075
 Alpha virt. eigenvalues --    3.08508   3.09406   3.11742   3.15924   3.18509
 Alpha virt. eigenvalues --    3.25534   3.27569   3.32687   3.35086   3.35919
 Alpha virt. eigenvalues --    3.38397   3.40370   3.54484   3.59045   3.61068
 Alpha virt. eigenvalues --    3.84163   4.39754   4.44286   4.48385   4.49313
 Alpha virt. eigenvalues --    4.54583   4.56605   4.58540   4.66122   4.66649
 Alpha virt. eigenvalues --    4.70551   4.73237   4.78352   4.80742   4.89795
 Alpha virt. eigenvalues --    4.92400   4.96189   5.10443   5.20601
          Condensed to atoms (all electrons):
               1          2          3          4          5          6
     1  C    5.257003   0.375347   0.376415   0.384721   0.380460  -0.068339
     2  H    0.375347   0.505178  -0.025343  -0.017864  -0.031625   0.001161
     3  H    0.376415  -0.025343   0.507205  -0.018160  -0.032570   0.001158
     4  H    0.384721  -0.017864  -0.018160   0.462968  -0.033675   0.003992
     5  C    0.380460  -0.031625  -0.032570  -0.033675   4.142093   0.609500
     6  O   -0.068339   0.001161   0.001158   0.003992   0.609500   8.165764
     7  N   -0.127317   0.002702   0.003119   0.004596   0.257097  -0.111194
     8  H   -0.001036   0.000462   0.000373  -0.000014  -0.015508   0.002013
     9  C    0.005038  -0.000210  -0.000214  -0.000088  -0.027512   0.009939
    10  H    0.000269  -0.000020  -0.000007  -0.000002  -0.000920   0.006534
    11  C   -0.000318   0.000003   0.000052   0.000004  -0.002760  -0.003971
    12  H    0.000127   0.000000  -0.000032   0.000001   0.002663   0.004998
    13  H   -0.000003   0.000000  -0.000005   0.000000   0.000310   0.000042
    14  C    0.000002   0.000000   0.000000   0.000000   0.000019  -0.000097
    15  C    0.000000   0.000000   0.000000   0.000000  -0.000004  -0.000002
    16  H    0.000000   0.000000   0.000000   0.000000   0.000000   0.000000
    17  C    0.000000   0.000000   0.000000   0.000000   0.000000   0.000000
    18  H    0.000000   0.000000   0.000000   0.000000   0.000000   0.000000
    19  C    0.000000   0.000000   0.000000   0.000000   0.000000   0.000000
    20  O    0.000000   0.000000   0.000000   0.000000   0.000000   0.000000
    21  C    0.000000   0.000000   0.000000   0.000000   0.000000   0.000000
    22  H    0.000000   0.000000   0.000000   0.000000   0.000000   0.000000
    23  H    0.000000   0.000000   0.000000   0.000000   0.000000   0.000000
    24  H    0.000000   0.000000   0.000000   0.000000   0.000000   0.000000
    25  C    0.000000   0.000000   0.000000   0.000000   0.000000   0.000001
    26  H    0.000000   0.000000   0.000000   0.000000   0.000000   0.000000
    27  C    0.000000   0.000000   0.000000   0.000000   0.000013  -0.000164
    28  H    0.000002   0.000000   0.000000   0.000000   0.000004   0.000780
    29  C   -0.000033  -0.000006  -0.000003   0.000000   0.003762   0.000466
    30  O   -0.000047   0.000000  -0.000002   0.000000   0.000392  -0.000004
    31  N   -0.000001   0.000000   0.000000   0.000000  -0.000099  -0.000003
    32  H    0.000000   0.000000   0.000000   0.000000  -0.000003  -0.000001
    33  C    0.000000   0.000000   0.000000   0.000000   0.000001   0.000000
    34  H    0.000000   0.000000   0.000000   0.000000   0.000000   0.000000
    35  H    0.000000   0.000000   0.000000   0.000000   0.000000   0.000000
    36  H    0.000000   0.000000   0.000000   0.000000   0.000000   0.000000
               7          8          9         10         11         12
     1  C   -0.127317  -0.001036   0.005038   0.000269  -0.000318   0.000127
     2  H    0.002702   0.000462  -0.000210  -0.000020   0.000003   0.000000
     3  H    0.003119   0.000373  -0.000214  -0.000007   0.000052  -0.000032
     4  H    0.004596  -0.000014  -0.000088  -0.000002   0.000004   0.000001
     5  C    0.257097  -0.015508  -0.027512  -0.000920  -0.002760   0.002663
     6  O   -0.111194   0.002013   0.009939   0.006534  -0.003971   0.004998
     7  N    7.437817   0.312224   0.190344  -0.041174  -0.059677  -0.007126
     8  H    0.312224   0.291333  -0.026852   0.002592   0.002242  -0.000181
     9  C    0.190344  -0.026852   5.100581   0.410146   0.331922  -0.039319
    10  H   -0.041174   0.002592   0.410146   0.473333  -0.041769  -0.002261
    11  C   -0.059677   0.002242   0.331922  -0.041769   5.137125   0.404083
    12  H   -0.007126  -0.000181  -0.039319  -0.002261   0.404083   0.473171
    13  H    0.001233   0.000497  -0.041821   0.003711   0.398020  -0.021735
    14  C    0.004688  -0.000054  -0.056688   0.000714   0.316238  -0.037051
    15  C   -0.000038   0.000001  -0.001796   0.000386  -0.038600   0.001309
    16  H   -0.000009   0.000000   0.000019   0.000008  -0.002308   0.000012
    17  C    0.000000   0.000000  -0.000062  -0.000008   0.003361  -0.000070
    18  H    0.000000   0.000000   0.000001   0.000000  -0.000104   0.000002
    19  C    0.000000   0.000000   0.000001  -0.000001   0.000263   0.000009
    20  O    0.000000   0.000000   0.000000   0.000000   0.000000   0.000000
    21  C    0.000000   0.000000   0.000000   0.000000   0.000000   0.000000
    22  H    0.000000   0.000000   0.000000   0.000000   0.000000   0.000000
    23  H    0.000000   0.000000   0.000000   0.000000   0.000000   0.000000
    24  H    0.000000   0.000000   0.000000   0.000000   0.000000   0.000000
    25  C    0.000000   0.000000   0.000066  -0.000033   0.002150   0.000069
    26  H    0.000000   0.000000   0.000002   0.000002  -0.000096  -0.000004
    27  C   -0.000020  -0.000001  -0.003662   0.001976  -0.049036  -0.002855
    28  H   -0.000092   0.000000  -0.000089   0.000729  -0.001808   0.001415
    29  C   -0.039994  -0.006842   0.359695  -0.042912  -0.046231   0.004036
    30  O   -0.008308   0.021536  -0.081353   0.001887  -0.000103  -0.000068
    31  N    0.002251   0.000972  -0.106581   0.004978   0.000749  -0.000134
    32  H    0.000068  -0.000030  -0.000003   0.001439  -0.001085   0.000030
    33  C   -0.000096  -0.000026   0.004732   0.000023  -0.000296   0.000004
    34  H   -0.000002  -0.000001  -0.000124   0.000004   0.000055   0.000000
    35  H    0.000006  -0.000001   0.000043  -0.000016  -0.000013   0.000000
    36  H    0.000001   0.000000  -0.000002  -0.000016  -0.000001   0.000000
              13         14         15         16         17         18
     1  C   -0.000003   0.000002   0.000000   0.000000   0.000000   0.000000
     2  H    0.000000   0.000000   0.000000   0.000000   0.000000   0.000000
     3  H   -0.000005   0.000000   0.000000   0.000000   0.000000   0.000000
     4  H    0.000000   0.000000   0.000000   0.000000   0.000000   0.000000
     5  C    0.000310   0.000019  -0.000004   0.000000   0.000000   0.000000
     6  O    0.000042  -0.000097  -0.000002   0.000000   0.000000   0.000000
     7  N    0.001233   0.004688  -0.000038  -0.000009   0.000000   0.000000
     8  H    0.000497  -0.000054   0.000001   0.000000   0.000000   0.000000
     9  C   -0.041821  -0.056688  -0.001796   0.000019  -0.000062   0.000001
    10  H    0.003711   0.000714   0.000386   0.000008  -0.000008   0.000000
    11  C    0.398020   0.316238  -0.038600  -0.002308   0.003361  -0.000104
    12  H   -0.021735  -0.037051   0.001309   0.000012  -0.000070   0.000002
    13  H    0.507959  -0.042278  -0.001178   0.002578   0.000272  -0.000007
    14  C   -0.042278   4.883357   0.586786  -0.028940  -0.048852   0.001795
    15  C   -0.001178   0.586786   4.914744   0.379001   0.494454  -0.026479
    16  H    0.002578  -0.028940   0.379001   0.467051  -0.028513  -0.001428
    17  C    0.000272  -0.048852   0.494454  -0.028513   5.087373   0.380581
    18  H   -0.000007   0.001795  -0.026479  -0.001428   0.380581   0.465790
    19  C   -0.000012  -0.025209  -0.026363   0.001001   0.549104  -0.029715
    20  O    0.000000   0.000070   0.003729  -0.000038  -0.056144  -0.004406
    21  C    0.000000   0.000020  -0.000359  -0.000008  -0.007884   0.002030
    22  H    0.000000  -0.000001  -0.000245  -0.000001   0.000966  -0.000060
    23  H    0.000000   0.000000   0.000016   0.000000   0.000323   0.000033
    24  H    0.000000  -0.000004  -0.000235   0.000001   0.001177  -0.000042
    25  C   -0.000030  -0.049009  -0.035515   0.000305  -0.057745   0.002379
    26  H    0.000002   0.002201  -0.000116   0.000011   0.004239  -0.000105
    27  C    0.003107   0.545731  -0.045228   0.003150  -0.034656   0.000249
    28  H   -0.000006  -0.031379   0.003067  -0.000124   0.000059   0.000010
    29  C   -0.003769  -0.002093   0.001049   0.000116  -0.000004   0.000000
    30  O    0.002517  -0.000196   0.000012   0.000032   0.000001   0.000000
    31  N    0.000502  -0.001735  -0.000227  -0.000046   0.000012  -0.000002
    32  H    0.000026   0.003940   0.000303   0.000000  -0.000230   0.000001
    33  C   -0.000003   0.000143   0.000015   0.000015   0.000009   0.000001
    34  H    0.000008   0.000045   0.000301   0.000085   0.000068   0.000001
    35  H   -0.000002  -0.000001   0.000005  -0.000001   0.000001   0.000000
    36  H    0.000000  -0.000003  -0.000012  -0.000001  -0.000001   0.000000
              19         20         21         22         23         24
     1  C    0.000000   0.000000   0.000000   0.000000   0.000000   0.000000
     2  H    0.000000   0.000000   0.000000   0.000000   0.000000   0.000000
     3  H    0.000000   0.000000   0.000000   0.000000   0.000000   0.000000
     4  H    0.000000   0.000000   0.000000   0.000000   0.000000   0.000000
     5  C    0.000000   0.000000   0.000000   0.000000   0.000000   0.000000
     6  O    0.000000   0.000000   0.000000   0.000000   0.000000   0.000000
     7  N    0.000000   0.000000   0.000000   0.000000   0.000000   0.000000
     8  H    0.000000   0.000000   0.000000   0.000000   0.000000   0.000000
     9  C    0.000001   0.000000   0.000000   0.000000   0.000000   0.000000
    10  H   -0.000001   0.000000   0.000000   0.000000   0.000000   0.000000
    11  C    0.000263   0.000000   0.000000   0.000000   0.000000   0.000000
    12  H    0.000009   0.000000   0.000000   0.000000   0.000000   0.000000
    13  H   -0.000012   0.000000   0.000000   0.000000   0.000000   0.000000
    14  C   -0.025209   0.000070   0.000020  -0.000001   0.000000  -0.000004
    15  C   -0.026363   0.003729  -0.000359  -0.000245   0.000016  -0.000235
    16  H    0.001001  -0.000038  -0.000008  -0.000001   0.000000   0.000001
    17  C    0.549104  -0.056144  -0.007884   0.000966   0.000323   0.001177
    18  H   -0.029715  -0.004406   0.002030  -0.000060   0.000033  -0.000042
    19  C    4.375957   0.257292  -0.043231  -0.001088   0.002225  -0.001065
    20  O    0.257292   8.407799   0.203364  -0.039334  -0.033549  -0.038871
    21  C   -0.043231   0.203364   4.842689   0.390297   0.405964   0.390777
    22  H   -0.001088  -0.039334   0.390297   0.563715  -0.029157  -0.044136
    23  H    0.002225  -0.033549   0.405964  -0.029157   0.488901  -0.028234
    24  H   -0.001065  -0.038871   0.390777  -0.044136  -0.028234   0.557305
    25  C    0.578189  -0.051771   0.002740  -0.000033  -0.000005   0.000009
    26  H   -0.029126   0.001088  -0.000115   0.000018  -0.000021   0.000018
    27  C   -0.040738   0.002119  -0.000090  -0.000004   0.000003  -0.000002
    28  H    0.001999  -0.000048   0.000002   0.000000   0.000000   0.000000
    29  C    0.000002   0.000000   0.000000   0.000000   0.000000   0.000000
    30  O    0.000000   0.000000   0.000000   0.000000   0.000000   0.000000
    31  N    0.000009   0.000000   0.000000   0.000000   0.000000   0.000000
    32  H   -0.000047   0.000000   0.000000   0.000000   0.000000   0.000000
    33  C   -0.000003   0.000000   0.000000   0.000000   0.000000   0.000000
    34  H   -0.000001   0.000000   0.000000   0.000000   0.000000   0.000000
    35  H    0.000000   0.000000   0.000000   0.000000   0.000000   0.000000
    36  H    0.000000   0.000000   0.000000   0.000000   0.000000   0.000000
              25         26         27         28         29         30
     1  C    0.000000   0.000000   0.000000   0.000002  -0.000033  -0.000047
     2  H    0.000000   0.000000   0.000000   0.000000  -0.000006   0.000000
     3  H    0.000000   0.000000   0.000000   0.000000  -0.000003  -0.000002
     4  H    0.000000   0.000000   0.000000   0.000000   0.000000   0.000000
     5  C    0.000000   0.000000   0.000013   0.000004   0.003762   0.000392
     6  O    0.000001   0.000000  -0.000164   0.000780   0.000466  -0.000004
     7  N    0.000000   0.000000  -0.000020  -0.000092  -0.039994  -0.008308
     8  H    0.000000   0.000000  -0.000001   0.000000  -0.006842   0.021536
     9  C    0.000066   0.000002  -0.003662  -0.000089   0.359695  -0.081353
    10  H   -0.000033   0.000002   0.001976   0.000729  -0.042912   0.001887
    11  C    0.002150  -0.000096  -0.049036  -0.001808  -0.046231  -0.000103
    12  H    0.000069  -0.000004  -0.002855   0.001415   0.004036  -0.000068
    13  H   -0.000030   0.000002   0.003107  -0.000006  -0.003769   0.002517
    14  C   -0.049009   0.002201   0.545731  -0.031379  -0.002093  -0.000196
    15  C   -0.035515  -0.000116  -0.045228   0.003067   0.001049   0.000012
    16  H    0.000305   0.000011   0.003150  -0.000124   0.000116   0.000032
    17  C   -0.057745   0.004239  -0.034656   0.000059  -0.000004   0.000001
    18  H    0.002379  -0.000105   0.000249   0.000010   0.000000   0.000000
    19  C    0.578189  -0.029126  -0.040738   0.001999   0.000002   0.000000
    20  O   -0.051771   0.001088   0.002119  -0.000048   0.000000   0.000000
    21  C    0.002740  -0.000115  -0.000090   0.000002   0.000000   0.000000
    22  H   -0.000033   0.000018  -0.000004   0.000000   0.000000   0.000000
    23  H   -0.000005  -0.000021   0.000003   0.000000   0.000000   0.000000
    24  H    0.000009   0.000018  -0.000002   0.000000   0.000000   0.000000
    25  C    4.958542   0.376169   0.547188  -0.026683  -0.000001   0.000000
    26  H    0.376169   0.455357  -0.028454  -0.001981   0.000000   0.000000
    27  C    0.547188  -0.028454   4.941321   0.378867   0.000101  -0.000008
    28  H   -0.026683  -0.001981   0.378867   0.446355   0.000095   0.000000
    29  C   -0.000001   0.000000   0.000101   0.000095   4.160588   0.592616
    30  O    0.000000   0.000000  -0.000008   0.000000   0.592616   8.201573
    31  N   -0.000062   0.000000  -0.000797  -0.000005   0.293680  -0.103776
    32  H    0.000403   0.000001   0.002855   0.000014  -0.019598   0.002441
    33  C   -0.000003   0.000000   0.000015   0.000000  -0.031349   0.006634
    34  H   -0.000002   0.000000  -0.000002   0.000000  -0.002543   0.001182
    35  H    0.000000   0.000000   0.000000   0.000000  -0.003694   0.004074
    36  H    0.000000   0.000000   0.000000   0.000000   0.004273   0.000327
              31         32         33         34         35         36
     1  C   -0.000001   0.000000   0.000000   0.000000   0.000000   0.000000
     2  H    0.000000   0.000000   0.000000   0.000000   0.000000   0.000000
     3  H    0.000000   0.000000   0.000000   0.000000   0.000000   0.000000
     4  H    0.000000   0.000000   0.000000   0.000000   0.000000   0.000000
     5  C   -0.000099  -0.000003   0.000001   0.000000   0.000000   0.000000
     6  O   -0.000003  -0.000001   0.000000   0.000000   0.000000   0.000000
     7  N    0.002251   0.000068  -0.000096  -0.000002   0.000006   0.000001
     8  H    0.000972  -0.000030  -0.000026  -0.000001  -0.000001   0.000000
     9  C   -0.106581  -0.000003   0.004732  -0.000124   0.000043  -0.000002
    10  H    0.004978   0.001439   0.000023   0.000004  -0.000016  -0.000016
    11  C    0.000749  -0.001085  -0.000296   0.000055  -0.000013  -0.000001
    12  H   -0.000134   0.000030   0.000004   0.000000   0.000000   0.000000
    13  H    0.000502   0.000026  -0.000003   0.000008  -0.000002   0.000000
    14  C   -0.001735   0.003940   0.000143   0.000045  -0.000001  -0.000003
    15  C   -0.000227   0.000303   0.000015   0.000301   0.000005  -0.000012
    16  H   -0.000046   0.000000   0.000015   0.000085  -0.000001  -0.000001
    17  C    0.000012  -0.000230   0.000009   0.000068   0.000001  -0.000001
    18  H   -0.000002   0.000001   0.000001   0.000001   0.000000   0.000000
    19  C    0.000009  -0.000047  -0.000003  -0.000001   0.000000   0.000000
    20  O    0.000000   0.000000   0.000000   0.000000   0.000000   0.000000
    21  C    0.000000   0.000000   0.000000   0.000000   0.000000   0.000000
    22  H    0.000000   0.000000   0.000000   0.000000   0.000000   0.000000
    23  H    0.000000   0.000000   0.000000   0.000000   0.000000   0.000000
    24  H    0.000000   0.000000   0.000000   0.000000   0.000000   0.000000
    25  C   -0.000062   0.000403  -0.000003  -0.000002   0.000000   0.000000
    26  H    0.000000   0.000001   0.000000   0.000000   0.000000   0.000000
    27  C   -0.000797   0.002855   0.000015  -0.000002   0.000000   0.000000
    28  H   -0.000005   0.000014   0.000000   0.000000   0.000000   0.000000
    29  C    0.293680  -0.019598  -0.031349  -0.002543  -0.003694   0.004273
    30  O   -0.103776   0.002441   0.006634   0.001182   0.004074   0.000327
    31  N    7.298980   0.321899   0.201481  -0.048539  -0.037751  -0.037943
    32  H    0.321899   0.311090  -0.021754   0.001042   0.002494  -0.004166
    33  C    0.201481  -0.021754   4.911523   0.404711   0.402932   0.398737
    34  H   -0.048539   0.001042   0.404711   0.533826  -0.032367  -0.032655
    35  H   -0.037751   0.002494   0.402932  -0.032367   0.482026  -0.023953
    36  H   -0.037943  -0.004166   0.398737  -0.032655  -0.023953   0.522058
 Mulliken charges:
               1
     1  C   -0.582291
     2  H    0.190214
     3  H    0.188012
     4  H    0.213521
     5  C    0.748363
     6  O   -0.622574
     7  N   -0.821098
     8  H    0.416299
     9  C   -0.026153
    10  H    0.220409
    11  C   -0.348090
    12  H    0.218910
    13  H    0.190064
    14  C   -0.022157
    15  C   -0.208781
    16  H    0.208032
    17  C   -0.287832
    18  H    0.209475
    19  C    0.430547
    20  O   -0.651302
    21  C   -0.186199
    22  H    0.159063
    23  H    0.193501
    24  H    0.163302
    25  C   -0.247318
    26  H    0.220912
    27  C   -0.220976
    28  H    0.228816
    29  C    0.778592
    30  O   -0.641359
    31  N   -0.787813
    32  H    0.398872
    33  C   -0.277446
    34  H    0.174908
    35  H    0.206220
    36  H    0.173357
 Sum of Mulliken charges =   0.00000
 Mulliken charges with hydrogens summed into heavy atoms:
               1
     1  C    0.009455
     5  C    0.748363
     6  O   -0.622574
     7  N   -0.404798
     9  C    0.194256
    11  C    0.060884
    14  C   -0.022157
    15  C   -0.000749
    17  C   -0.078357
    19  C    0.430547
    20  O   -0.651302
    21  C    0.329667
    25  C   -0.026406
    27  C    0.007841
    29  C    0.778592
    30  O   -0.641359
    31  N   -0.388941
    33  C    0.277039
 DipInt: DoE/N= T F RetVal/Mat= T F Init=T NMatP=  1 IDeriv=0 Min/MaxMlt=  0  4
 Entering OneElI...
 OneElI was handed  1073499830 working-precision words.
 Multipole integrals L=0 to 4 MinM= 0 MaxM= 0.
 Requested accuracy = 0.1000D-12
 PrtBox:  NBox=     1 Levels=  1 BoxLen=   35.86 SMaxX=       23.28
          Shift=           12.435747            4.132408            3.224803
 Box      1 Number                   0 centers from      1 to    108:
 ShPair: Thresh= 1.00D-13 NBox=     1 BxSize= 3.59D+01 RnKept= 2.14D+01
         NSMCal=                 5886 NSMKep=                4596
 PrsmSu:  NPrtUS=   1 ThrOK=F IAlg=1 NPAlg=1 LenDen=           0.
 Prism:   IPart=     0 DynPar=F LinDyn=F Incr=          45.
 PRISM was handed  1073108264 working-precision words and  4596 shell-pairs
 IPart=  0 NShTot=        4596 NBatch=          75 AvBLen=        61.3
 PrSmSu:  NxtVal=             46.
 Electronic moments (au):
       -134.00000000         -1.00849258          0.93337643          0.22198945
      -4561.01533862      -1236.32643240       -337.19569121         -4.31134229
          0.00191964         -4.54885161       5014.86832240      -2787.56671959
       -124.66669817      -1822.15231804       5276.64485907         28.99547624
        228.78586839       -111.88980626        971.22844394         11.10442686
    -344696.08507103     -32621.09625584      -2434.66866495      16631.17059996
      -2457.11916734       -205.72068714       2768.55155978        348.93687064
        205.50914381     -23637.61231892      -7905.76440417      -3546.84031388
      -4075.91660052       -326.95338239        -56.75144695
 Electronic spatial extent (au):  <R**2>=           6134.5375
 DipInt: DoE/N= F T RetVal/Mat= T F Init=T NMatP=  1 IDeriv=0 Min/MaxMlt=  0  4
 Nuclear    moments (au):
        134.00000000          0.00000000          0.00000000          0.00000000
       4494.18970130       1149.89686509        258.15649723          0.00000000
          0.00000000          0.00000000      -5033.70281773       2824.90554144
        120.39987401       1775.68047001      -5247.54094292         20.26318573
       -230.78906618        119.59600067       -988.12413275        -40.96931311
     331604.33257508      28391.92616278       1286.26547592     -16961.19331878
       2348.83666162        199.63526775      -2889.66106670       -304.71656723
       -170.05532442      19979.43608195       5031.21091319       2644.16745449
       3954.06696858        382.57747528         50.43738518
 Total      moments (au):
          0.00000000         -1.00849258          0.93337643          0.22198945
        -66.82563732        -86.42956730        -79.03919398         -4.31134229
          0.00191964         -4.54885161        -18.83449533         37.33882186
         -4.26682416        -46.47184803         29.10391614         49.25866197
         -2.00319779          7.70619441        -16.89568881        -29.86488625
     -13091.75249595      -4229.17009306      -1148.40318903       -330.02271882
       -108.28250573         -6.08541939       -121.10950692         44.22030341
         35.45381939      -3658.17623697      -2874.55349099       -902.67285939
       -121.84963194         55.62409289         -6.31406177
 Traceless Quadrup. (au):
         10.60582888         -8.99810110         -1.60772778         -4.31134229
          0.00191964         -4.54885161
 Charge=              0.0000 electrons
 Dipole moment (field-independent basis, Debye):
    X=             -2.5633    Y=              2.3724    Z=              0.5642  Tot=              3.5380
 Quadrupole moment (field-independent basis, Debye-Ang):
   XX=            -89.8828   YY=           -116.2507   ZZ=           -106.3104
   XY=             -5.7989   XZ=              0.0026   YZ=             -6.1184
 Traceless Quadrupole moment (field-independent basis, Debye-Ang):
   XX=             14.2652   YY=            -12.1028   ZZ=             -2.1624
   XY=             -5.7989   XZ=              0.0026   YZ=             -6.1184
 Octapole moment (field-independent basis, Debye-Ang**2):
  XXX=            -13.4057  YYY=             26.5763  ZZZ=             -3.0370  XYY=            -33.0769
  XXY=             20.7150  XXZ=             35.0604  XZZ=             -1.4258  YZZ=              5.4850
  YYZ=            -12.0257  XYZ=            -21.2567
 Hexadecapole moment (field-independent basis, Debye-Ang**3):
 XXXX=          -4930.9814 YYYY=          -1592.9081 ZZZZ=           -432.5437 XXXY=           -124.3024
 XXXZ=            -40.7844 YYYX=             -2.2921 YYYZ=            -45.6156 ZZZX=             16.6555
 ZZZY=             13.3536 XXYY=          -1377.8445 XXZZ=          -1082.6946 YYZZ=           -339.9899
 XXYZ=            -45.8944 YYXZ=             20.9507 ZZXY=             -2.3782
 N-N= 1.321527015191D+03 E-N=-4.601107759827D+03  KE= 8.351861975423D+02
 Entering OneElI...
 OneElI was handed  1073545595 working-precision words.
 Calculate electrostatic properties
    NBasis =   306  MinDer = 0  MaxDer = 0
    NGrid  =    36  NMatD  =   1
 Requested accuracy = 0.1000D-12
 PrtBox:  NBox=     1 Levels=  1 BoxLen=   29.89 SMaxX=       23.28
          Shift=           12.435747            4.132408            3.224803
 Box      1 Number                   0 centers from      1 to    108:
 ShPair: Thresh= 1.00D-13 NBox=     1 BxSize= 2.99D+01 RnKept= 1.80D+01
         NSMCal=                 5886 NSMKep=                4079
 PrsmSu:  NPrtUS=   8 ThrOK=T IAlg=1 NPAlg=1 LenDen=           0.
 Prism:   IPart=     0 DynPar=F LinDyn=F Incr=         183.
 PRISM was handed   134045374 working-precision words and  4079 shell-pairs
 PRISM was handed   134045374 working-precision words and  4079 shell-pairs
 PRISM was handed   134045374 working-precision words and  4079 shell-pairs
 PRISM was handed   134045374 working-precision words and  4079 shell-pairs
 PRISM was handed   134045374 working-precision words and  4079 shell-pairs
 PRISM was handed   134045374 working-precision words and  4079 shell-pairs
 PRISM was handed   134045374 working-precision words and  4079 shell-pairs
 PRISM was handed   134045374 working-precision words and  4079 shell-pairs
 IPart=  4 NShTot=       18144 NBatch=         504 AvBLen=        36.0
 IPart=  5 NShTot=       18072 NBatch=         502 AvBLen=        36.0
 IPart=  6 NShTot=       17892 NBatch=         497 AvBLen=        36.0
 IPart=  3 NShTot=       18360 NBatch=         510 AvBLen=        36.0
 IPart=  2 NShTot=       18576 NBatch=         516 AvBLen=        36.0
 IPart=  1 NShTot=       18936 NBatch=         526 AvBLen=        36.0
 IPart=  0 NShTot=       19116 NBatch=         531 AvBLen=        36.0
 IPart=  7 NShTot=       17748 NBatch=         493 AvBLen=        36.0
 PrSmSu:  NxtVal=           1465.
 --------------------------------------------------------
       Center         ----      EFG at Nuclei      ----
                      3XX-RR        3YY-RR        3ZZ-RR
 --------------------------------------------------------
     1   Atom       -0.057363      0.046983      0.010381
     2   Atom        0.048219     -0.119472      0.071252
     3   Atom        0.144435      0.158019     -0.302454
     4   Atom        0.079205     -0.195450      0.116245
     5   Atom        0.274091      0.072052     -0.346144
     6   Atom        1.038479     -0.236300     -0.802178
     7   Atom       -0.487790     -0.155682      0.643472
     8   Atom        0.031781     -0.122432      0.090652
     9   Atom       -0.206622      0.066119      0.140503
    10   Atom        0.125395      0.100633     -0.226027
    11   Atom       -0.033911      0.051426     -0.017515
    12   Atom        0.092898     -0.250133      0.157235
    13   Atom        0.141573      0.072782     -0.214355
    14   Atom        0.095870     -0.067945     -0.027925
    15   Atom        0.187923     -0.124412     -0.063512
    16   Atom        0.110567     -0.004074     -0.106492
    17   Atom        0.123730     -0.085764     -0.037966
    18   Atom       -0.050206      0.011261      0.038945
    19   Atom       -0.110444      0.031119      0.079326
    20   Atom       -1.725860      0.944209      0.781651
    21   Atom       -0.126741      0.044046      0.082696
    22   Atom        0.135701     -0.292772      0.157071
    23   Atom       -0.197427      0.134475      0.062951
    24   Atom        0.145989      0.128109     -0.274098
    25   Atom        0.156061     -0.103367     -0.052694
    26   Atom        0.104633     -0.004206     -0.100428
    27   Atom        0.176544     -0.125216     -0.051328
    28   Atom       -0.047897      0.001662      0.046235
    29   Atom       -0.111605      0.332116     -0.220511
    30   Atom       -0.133513      0.699246     -0.565732
    31   Atom        0.049963     -0.480401      0.430438
    32   Atom       -0.011314     -0.096172      0.107486
    33   Atom        0.119746     -0.247573      0.127827
    34   Atom        0.023839      0.127220     -0.151058
    35   Atom       -0.141723     -0.026970      0.168693
    36   Atom        0.020286      0.128975     -0.149261
 --------------------------------------------------------
                        XY            XZ            YZ
 --------------------------------------------------------
     1   Atom        0.003259     -0.014898      0.020001
     2   Atom       -0.166761      0.094430      0.160221
     3   Atom       -0.002104     -0.054888     -0.043343
     4   Atom        0.166866      0.058452     -0.129590
     5   Atom       -0.001922      0.213514      0.305954
     6   Atom       -1.085564     -0.086002      0.004624
     7   Atom        0.191374     -0.306828     -0.523391
     8   Atom       -0.204813     -0.161012     -0.241738
     9   Atom        0.078936     -0.055359      0.039932
    10   Atom       -0.029967     -0.088439     -0.147762
    11   Atom       -0.043286      0.008054      0.052680
    12   Atom        0.147665     -0.010853      0.030454
    13   Atom       -0.027688     -0.051396     -0.178772
    14   Atom       -0.050024      0.015476      0.213920
    15   Atom       -0.079006      0.030338      0.243085
    16   Atom       -0.080122     -0.106535     -0.223752
    17   Atom       -0.027215      0.048610      0.147716
    18   Atom        0.181633      0.155451     -0.157498
    19   Atom       -0.101691     -0.078209      0.321351
    20   Atom        0.652774      0.046874     -0.680657
    21   Atom        0.221836      0.203025     -0.122135
    22   Atom       -0.063437      0.012865      0.031090
    23   Atom       -0.089610     -0.179899     -0.058488
    24   Atom        0.002847      0.029961      0.110090
    25   Atom       -0.038546      0.055557      0.173754
    26   Atom       -0.088886     -0.116258     -0.224200
    27   Atom       -0.046943      0.078470      0.261376
    28   Atom        0.179843      0.148306     -0.145032
    29   Atom       -0.043677      0.376773      0.135339
    30   Atom       -0.994533      0.283789     -0.609444
    31   Atom        0.134756     -0.676794     -0.123952
    32   Atom       -0.234985     -0.206353     -0.191134
    33   Atom        0.145118     -0.002248      0.007569
    34   Atom        0.054748      0.209725     -0.071394
    35   Atom       -0.222906      0.005884      0.001684
    36   Atom        0.053214     -0.216977      0.067566
 --------------------------------------------------------


 ---------------------------------------------------------------------------------
              Nuclear Quadrupole Coupling Constant in Principal Axis System
 ---------------------------------------------------------------------------------

       Atom             a.u.   MegaHertz   Gauss  10(-4) cm-1        Axes

              Baa    -0.5825     2.798     0.998     0.933  0.9520 -0.2826  0.1176
     7 N(14)  Bbb    -0.4076     1.957     0.698     0.653  0.1941  0.8543  0.4821
              Bcc     0.9901    -4.755    -1.697    -1.586 -0.2367 -0.4361  0.8682
 
              Baa    -0.5208     2.501     0.893     0.834 -0.4522  0.8671 -0.2088
    31 N(14)  Bbb    -0.4448     2.136     0.762     0.713  0.6585  0.4825  0.5775
              Bcc     0.9657    -4.638    -1.655    -1.547 -0.6015 -0.1237  0.7892
 

 ---------------------------------------------------------------------------------

 No NMR shielding tensors so no spin-rotation constants.
 Leave Link  601 at Mon May 16 02:02:32 2016, MaxMem=  1073741824 cpu:         2.6
 FitSet:  NAtFit=    36 NAtPot=    36 NAtFrz=     0 MDM=    40 TotChg=   0.00000
 Breneman (CHELPG) radii used.
 Atom Element Radius
    1     6    1.50
    2     1    1.45
    3     1    1.45
    4     1    1.45
    5     6    1.50
    6     8    1.70
    7     7    1.70
    8     1    1.45
    9     6    1.50
   10     1    1.45
   11     6    1.50
   12     1    1.45
   13     1    1.45
   14     6    1.50
   15     6    1.50
   16     1    1.45
   17     6    1.50
   18     1    1.45
   19     6    1.50
   20     8    1.70
   21     6    1.50
   22     1    1.45
   23     1    1.45
   24     1    1.45
   25     6    1.50
   26     1    1.45
   27     6    1.50
   28     1    1.45
   29     6    1.50
   30     8    1.70
   31     7    1.70
   32     1    1.45
   33     6    1.50
   34     1    1.45
   35     1    1.45
   36     1    1.45
 Generate Potential Derived Charges using the Breneman model, NDens= 1.
 Grid spacing= 0.300 Box extension= 2.800
 NStep X,Y,Z=   61     41     33   Total possible points=       82533
 Number of Points to Fit=   20878
 Approximate Molecular Volume= 1549.05 A**3

 **********************************************************************

            Electrostatic Properties Using The SCF Density

 **********************************************************************

       Atomic Center    1 is at   5.231142 -1.255409  0.169086
       Atomic Center    2 is at   5.738238 -0.421694 -0.306001
       Atomic Center    3 is at   5.359363 -1.157160  1.242111
       Atomic Center    4 is at   5.659819 -2.186776 -0.168389
       Atomic Center    5 is at   3.759816 -1.220990 -0.187782
       Atomic Center    6 is at   3.212285 -2.118961 -0.772794
       Atomic Center    7 is at   3.106557 -0.102876  0.195368
       Atomic Center    8 is at   3.574710  0.629642  0.680989
       Atomic Center    9 is at   1.706573  0.102610 -0.085632
       Atomic Center   10 is at   1.498222 -0.289629 -1.071695
       Atomic Center   11 is at   0.813051 -0.628623  0.945161
       Atomic Center   12 is at   1.192657 -1.640564  1.013485
       Atomic Center   13 is at   0.956429 -0.163194  1.914834
       Atomic Center   14 is at  -0.656460 -0.662002  0.585803
       Atomic Center   15 is at  -1.592428  0.108132  1.250596
       Atomic Center   16 is at  -1.278195  0.748207  2.056985
       Atomic Center   17 is at  -2.942194  0.081898  0.911039
       Atomic Center   18 is at  -3.630374  0.695185  1.459745
       Atomic Center   19 is at  -3.371934 -0.733969 -0.120923
       Atomic Center   20 is at  -4.650228 -0.838682 -0.538197
       Atomic Center   21 is at  -5.654723 -0.118638  0.116941
       Atomic Center   22 is at  -5.494330  0.951445  0.034651
       Atomic Center   23 is at  -6.580714 -0.376287 -0.374674
       Atomic Center   24 is at  -5.719317 -0.392050  1.164841
       Atomic Center   25 is at  -2.443428 -1.520015 -0.802159
       Atomic Center   26 is at  -2.791930 -2.156350 -1.594337
       Atomic Center   27 is at  -1.113459 -1.484206 -0.448690
       Atomic Center   28 is at  -0.413078 -2.110705 -0.974638
       Atomic Center   29 is at   1.462460  1.609490 -0.059006
       Atomic Center   30 is at   2.117630  2.327894  0.653927
       Atomic Center   31 is at   0.491264  2.066164 -0.866867
       Atomic Center   32 is at  -0.098298  1.402595 -1.314703
       Atomic Center   33 is at   0.059838  3.447519 -0.828321
       Atomic Center   34 is at  -0.528815  3.662958  0.057203
       Atomic Center   35 is at   0.922781  4.096287 -0.833592
       Atomic Center   36 is at  -0.538935  3.648283 -1.706492
      ESP Fit Center   37 is at  -9.121238 -1.445245 -0.724754
      ESP Fit Center   38 is at  -9.121238 -1.445245 -0.424754
      ESP Fit Center   39 is at  -9.121238 -1.445245 -0.124754
      ESP Fit Center   40 is at  -9.121238 -1.145245 -1.024754
      ESP Fit Center   41 is at  -9.121238 -1.145245 -0.724754
      ESP Fit Center   42 is at  -9.121238 -1.145245 -0.424754
      ESP Fit Center   43 is at  -9.121238 -1.145245 -0.124754
      ESP Fit Center   44 is at  -9.121238 -1.145245  0.175246
      ESP Fit Center   45 is at  -9.121238 -1.145245  0.475246
      ESP Fit Center   46 is at  -9.121238 -0.845245 -1.324754
      ESP Fit Center   47 is at  -9.121238 -0.845245 -1.024754
      ESP Fit Center   48 is at  -9.121238 -0.845245 -0.724754
      ESP Fit Center   49 is at  -9.121238 -0.845245 -0.424754
      ESP Fit Center   50 is at  -9.121238 -0.845245 -0.124754
      ESP Fit Center   51 is at  -9.121238 -0.845245  0.175246
      ESP Fit Center   52 is at  -9.121238 -0.845245  0.475246
      ESP Fit Center   53 is at  -9.121238 -0.545245 -1.324754
      ESP Fit Center   54 is at  -9.121238 -0.545245 -1.024754
      ESP Fit Center   55 is at  -9.121238 -0.545245 -0.724754
      ESP Fit Center   56 is at  -9.121238 -0.545245 -0.424754
      ESP Fit Center   57 is at  -9.121238 -0.545245 -0.124754
      ESP Fit Center   58 is at  -9.121238 -0.545245  0.175246
      ESP Fit Center   59 is at  -9.121238 -0.545245  0.475246
      ESP Fit Center   60 is at  -9.121238 -0.545245  0.775246
      ESP Fit Center   61 is at  -9.121238 -0.245245 -1.324754
      ESP Fit Center   62 is at  -9.121238 -0.245245 -1.024754
      ESP Fit Center   63 is at  -9.121238 -0.245245 -0.724754
      ESP Fit Center   64 is at  -9.121238 -0.245245 -0.424754
      ESP Fit Center   65 is at  -9.121238 -0.245245 -0.124754
      ESP Fit Center   66 is at  -9.121238 -0.245245  0.175246
      ESP Fit Center   67 is at  -9.121238 -0.245245  0.475246
      ESP Fit Center   68 is at  -9.121238 -0.245245  0.775246
      ESP Fit Center   69 is at  -9.121238  0.054755 -1.324754
      ESP Fit Center   70 is at  -9.121238  0.054755 -1.024754
      ESP Fit Center   71 is at  -9.121238  0.054755 -0.724754
      ESP Fit Center   72 is at  -9.121238  0.054755 -0.424754
      ESP Fit Center   73 is at  -9.121238  0.054755 -0.124754
      ESP Fit Center   74 is at  -9.121238  0.054755  0.175246
      ESP Fit Center   75 is at  -9.121238  0.054755  0.475246
      ESP Fit Center   76 is at  -9.121238  0.354755 -1.024754
      ESP Fit Center   77 is at  -9.121238  0.354755 -0.724754
      ESP Fit Center   78 is at  -9.121238  0.354755 -0.424754
      ESP Fit Center   79 is at  -9.121238  0.354755 -0.124754
      ESP Fit Center   80 is at  -9.121238  0.354755  0.175246
      ESP Fit Center   81 is at  -9.121238  0.354755  0.475246
      ESP Fit Center   82 is at  -9.121238  0.654755 -0.724754
      ESP Fit Center   83 is at  -9.121238  0.654755 -0.424754
      ESP Fit Center   84 is at  -9.121238  0.654755 -0.124754
      ESP Fit Center   85 is at  -9.121238  0.654755  0.175246
      ESP Fit Center   86 is at  -8.821238 -2.045245 -0.424754
      ESP Fit Center   87 is at  -8.821238 -1.745245 -1.324754
      ESP Fit Center   88 is at  -8.821238 -1.745245 -1.024754
      ESP Fit Center   89 is at  -8.821238 -1.745245 -0.724754
      ESP Fit Center   90 is at  -8.821238 -1.745245 -0.424754
      ESP Fit Center   91 is at  -8.821238 -1.745245 -0.124754
      ESP Fit Center   92 is at  -8.821238 -1.745245  0.175246
      ESP Fit Center   93 is at  -8.821238 -1.745245  0.475246
      ESP Fit Center   94 is at  -8.821238 -1.445245 -1.624754
      ESP Fit Center   95 is at  -8.821238 -1.445245 -1.324754
      ESP Fit Center   96 is at  -8.821238 -1.445245 -1.024754
      ESP Fit Center   97 is at  -8.821238 -1.445245 -0.724754
      ESP Fit Center   98 is at  -8.821238 -1.445245 -0.424754
      ESP Fit Center   99 is at  -8.821238 -1.445245 -0.124754
      ESP Fit Center  100 is at  -8.821238 -1.445245  0.175246
      ESP Fit Center  101 is at  -8.821238 -1.445245  0.475246
      ESP Fit Center  102 is at  -8.821238 -1.445245  0.775246
      ESP Fit Center  103 is at  -8.821238 -1.145245 -1.624754
      ESP Fit Center  104 is at  -8.821238 -1.145245 -1.324754
      ESP Fit Center  105 is at  -8.821238 -1.145245 -1.024754
      ESP Fit Center  106 is at  -8.821238 -1.145245 -0.724754
      ESP Fit Center  107 is at  -8.821238 -1.145245 -0.424754
      ESP Fit Center  108 is at  -8.821238 -1.145245 -0.124754
      ESP Fit Center  109 is at  -8.821238 -1.145245  0.175246
      ESP Fit Center  110 is at  -8.821238 -1.145245  0.475246
      ESP Fit Center  111 is at  -8.821238 -1.145245  0.775246
      ESP Fit Center  112 is at  -8.821238 -1.145245  1.075246
      ESP Fit Center  113 is at  -8.821238 -0.845245 -1.924754
      ESP Fit Center  114 is at  -8.821238 -0.845245 -1.624754
      ESP Fit Center  115 is at  -8.821238 -0.845245 -1.324754
      ESP Fit Center  116 is at  -8.821238 -0.845245 -1.024754
      ESP Fit Center  117 is at  -8.821238 -0.845245 -0.724754
      ESP Fit Center  118 is at  -8.821238 -0.845245 -0.424754
      ESP Fit Center  119 is at  -8.821238 -0.845245 -0.124754
      ESP Fit Center  120 is at  -8.821238 -0.845245  0.175246
      ESP Fit Center  121 is at  -8.821238 -0.845245  0.475246
      ESP Fit Center  122 is at  -8.821238 -0.845245  0.775246
      ESP Fit Center  123 is at  -8.821238 -0.845245  1.075246
      ESP Fit Center  124 is at  -8.821238 -0.545245 -1.924754
      ESP Fit Center  125 is at  -8.821238 -0.545245 -1.624754
      ESP Fit Center  126 is at  -8.821238 -0.545245 -1.324754
      ESP Fit Center  127 is at  -8.821238 -0.545245 -1.024754
      ESP Fit Center  128 is at  -8.821238 -0.545245 -0.724754
      ESP Fit Center  129 is at  -8.821238 -0.545245 -0.424754
      ESP Fit Center  130 is at  -8.821238 -0.545245 -0.124754
      ESP Fit Center  131 is at  -8.821238 -0.545245  0.175246
      ESP Fit Center  132 is at  -8.821238 -0.545245  0.475246
      ESP Fit Center  133 is at  -8.821238 -0.545245  0.775246
      ESP Fit Center  134 is at  -8.821238 -0.545245  1.075246
      ESP Fit Center  135 is at  -8.821238 -0.245245 -1.924754
      ESP Fit Center  136 is at  -8.821238 -0.245245 -1.624754
      ESP Fit Center  137 is at  -8.821238 -0.245245 -1.324754
      ESP Fit Center  138 is at  -8.821238 -0.245245 -1.024754
      ESP Fit Center  139 is at  -8.821238 -0.245245 -0.724754
      ESP Fit Center  140 is at  -8.821238 -0.245245 -0.424754
      ESP Fit Center  141 is at  -8.821238 -0.245245 -0.124754
      ESP Fit Center  142 is at  -8.821238 -0.245245  0.175246
      ESP Fit Center  143 is at  -8.821238 -0.245245  0.475246
      ESP Fit Center  144 is at  -8.821238 -0.245245  0.775246
      ESP Fit Center  145 is at  -8.821238 -0.245245  1.075246
      ESP Fit Center  146 is at  -8.821238  0.054755 -1.924754
      ESP Fit Center  147 is at  -8.821238  0.054755 -1.624754
      ESP Fit Center  148 is at  -8.821238  0.054755 -1.324754
      ESP Fit Center  149 is at  -8.821238  0.054755 -1.024754
      ESP Fit Center  150 is at  -8.821238  0.054755 -0.724754
      ESP Fit Center  151 is at  -8.821238  0.054755 -0.424754
      ESP Fit Center  152 is at  -8.821238  0.054755 -0.124754
      ESP Fit Center  153 is at  -8.821238  0.054755  0.175246
      ESP Fit Center  154 is at  -8.821238  0.054755  0.475246
      ESP Fit Center  155 is at  -8.821238  0.054755  0.775246
      ESP Fit Center  156 is at  -8.821238  0.054755  1.075246
      ESP Fit Center  157 is at  -8.821238  0.354755 -1.624754
      ESP Fit Center  158 is at  -8.821238  0.354755 -1.324754
      ESP Fit Center  159 is at  -8.821238  0.354755 -1.024754
      ESP Fit Center  160 is at  -8.821238  0.354755 -0.724754
      ESP Fit Center  161 is at  -8.821238  0.354755 -0.424754
      ESP Fit Center  162 is at  -8.821238  0.354755 -0.124754
      ESP Fit Center  163 is at  -8.821238  0.354755  0.175246
      ESP Fit Center  164 is at  -8.821238  0.354755  0.475246
      ESP Fit Center  165 is at  -8.821238  0.354755  0.775246
      ESP Fit Center  166 is at  -8.821238  0.354755  1.075246
      ESP Fit Center  167 is at  -8.821238  0.654755 -1.624754
      ESP Fit Center  168 is at  -8.821238  0.654755 -1.324754
      ESP Fit Center  169 is at  -8.821238  0.654755 -1.024754
      ESP Fit Center  170 is at  -8.821238  0.654755 -0.724754
      ESP Fit Center  171 is at  -8.821238  0.654755 -0.424754
      ESP Fit Center  172 is at  -8.821238  0.654755 -0.124754
      ESP Fit Center  173 is at  -8.821238  0.654755  0.175246
      ESP Fit Center  174 is at  -8.821238  0.654755  0.475246
      ESP Fit Center  175 is at  -8.821238  0.654755  0.775246
      ESP Fit Center  176 is at  -8.821238  0.954755 -1.324754
      ESP Fit Center  177 is at  -8.821238  0.954755 -1.024754
      ESP Fit Center  178 is at  -8.821238  0.954755 -0.724754
      ESP Fit Center  179 is at  -8.821238  0.954755 -0.424754
      ESP Fit Center  180 is at  -8.821238  0.954755 -0.124754
      ESP Fit Center  181 is at  -8.821238  0.954755  0.175246
      ESP Fit Center  182 is at  -8.821238  0.954755  0.475246
      ESP Fit Center  183 is at  -8.821238  1.254755 -0.724754
      ESP Fit Center  184 is at  -8.821238  1.254755 -0.424754
[...]
 **** Fit       0.004565
 **** Fit       0.004372
 **** Fit       0.004287
 **** Fit       0.004204
 **** Fit       0.004054
 **** Fit       0.003816
 **** Fit      -0.001021
 **** Fit      -0.000077
 **** Fit       0.001013
 **** Fit       0.002224
 **** Fit       0.003495
 **** Fit       0.004700
 **** Fit       0.005635
 **** Fit       0.006102
 **** Fit       0.006073
 **** Fit       0.005736
 **** Fit       0.005364
 **** Fit       0.005133
 **** Fit       0.005063
 **** Fit       0.005058
 **** Fit       0.005004
 **** Fit       0.004831
 **** Fit       0.004532
 **** Fit       0.004138
 **** Fit      -0.000448
 **** Fit       0.000458
 **** Fit       0.001453
 **** Fit       0.002501
 **** Fit       0.003555
 **** Fit       0.004546
 **** Fit       0.005362
 **** Fit       0.005881
 **** Fit       0.006052
 **** Fit       0.005962
 **** Fit       0.005798
 **** Fit       0.005719
 **** Fit       0.005756
 **** Fit       0.005813
 **** Fit       0.005768
 **** Fit       0.005558
 **** Fit       0.005190
 **** Fit       0.004711
 **** Fit       0.000185
 **** Fit       0.001088
 **** Fit       0.002042
 **** Fit       0.003001
 **** Fit       0.003922
 **** Fit       0.004767
 **** Fit       0.005485
 **** Fit       0.006009
 **** Fit       0.006284
 **** Fit       0.006334
 **** Fit       0.006288
 **** Fit       0.006298
 **** Fit       0.006395
 **** Fit       0.006480
 **** Fit       0.006424
 **** Fit       0.006167
 **** Fit       0.005730
 **** Fit       0.005175
 **** Fit       0.000876
 **** Fit       0.001836
 **** Fit       0.002845
 **** Fit       0.003854
 **** Fit       0.004807
 **** Fit       0.005642
 **** Fit       0.006293
 **** Fit       0.006704
 **** Fit       0.006868
 **** Fit       0.006845
 **** Fit       0.006773
 **** Fit       0.006785
 **** Fit       0.006891
 **** Fit       0.006970
 **** Fit       0.006888
 **** Fit       0.006587
 **** Fit       0.006097
 **** Fit       0.005487
 **** Fit       0.004826
 **** Fit       0.000640
 **** Fit       0.001590
 **** Fit       0.002657
 **** Fit       0.003811
 **** Fit       0.005000
 **** Fit       0.006143
 **** Fit       0.007105
 **** Fit       0.007721
 **** Fit       0.007906
 **** Fit       0.007745
 **** Fit       0.007443
 **** Fit       0.007203
 **** Fit       0.007133
 **** Fit       0.007191
 **** Fit       0.007231
 **** Fit       0.007112
 **** Fit       0.006779
 **** Fit       0.006260
 **** Fit       0.005623
 **** Fit       0.001217
 **** Fit       0.002253
 **** Fit       0.003445
 **** Fit       0.004773
 **** Fit       0.006190
 **** Fit       0.007581
 **** Fit       0.008725
 **** Fit       0.009335
 **** Fit       0.009277
 **** Fit       0.008731
 **** Fit       0.008069
 **** Fit       0.007582
 **** Fit       0.007359
 **** Fit       0.007312
 **** Fit       0.007275
 **** Fit       0.007106
 **** Fit       0.006746
 **** Fit       0.006218
 **** Fit       0.005581
 **** Fit       0.001686
 **** Fit       0.002785
 **** Fit       0.004066
 **** Fit       0.005519
 **** Fit       0.007094
 **** Fit       0.008649
 **** Fit       0.009903
 **** Fit       0.010508
 **** Fit       0.010300
 **** Fit       0.009506
 **** Fit       0.008584
 **** Fit       0.007881
 **** Fit       0.007486
 **** Fit       0.007297
 **** Fit       0.007151
 **** Fit       0.006913
 **** Fit       0.006526
 **** Fit       0.006000
 **** Fit       0.005381
 **** Fit       0.003118
 **** Fit       0.004419
 **** Fit       0.005895
 **** Fit       0.007486
 **** Fit       0.009033
 **** Fit       0.010255
 **** Fit       0.010824
 **** Fit       0.010594
 **** Fit       0.009779
 **** Fit       0.008805
 **** Fit       0.008007
 **** Fit       0.007483
 **** Fit       0.007157
 **** Fit       0.006894
 **** Fit       0.006580
 **** Fit       0.006163
 **** Fit       0.005643
 **** Fit       0.003229
 **** Fit       0.004471
 **** Fit       0.005863
 **** Fit       0.007332
 **** Fit       0.008727
 **** Fit       0.009805
 **** Fit       0.010313
 **** Fit       0.010151
 **** Fit       0.009481
 **** Fit       0.008629
 **** Fit       0.007866
 **** Fit       0.007292
 **** Fit       0.006871
 **** Fit       0.006513
 **** Fit       0.006134
 **** Fit       0.005691
 **** Fit       0.003132
 **** Fit       0.004254
 **** Fit       0.005487
 **** Fit       0.006757
 **** Fit       0.007931
 **** Fit       0.008826
 **** Fit       0.009271
 **** Fit       0.009204
 **** Fit       0.008734
 **** Fit       0.008078
 **** Fit       0.007428
 **** Fit       0.006875
 **** Fit       0.006416
 **** Fit       0.006003
 **** Fit       0.003837
 **** Fit       0.004879
 **** Fit       0.005926
 **** Fit       0.006875
 **** Fit       0.007598
 **** Fit       0.007985
 **** Fit       0.008000
 **** Fit       0.007709
 **** Fit       0.007244
 **** Fit       0.006730
 **** Fit       0.006241
 **** Fit       0.005792
 **** Fit       0.004145
 **** Fit       0.004982
 **** Fit       0.005731
 **** Fit       0.006307
 **** Fit       0.006639
 **** Fit       0.006706
 **** Fit       0.006544
 **** Fit       0.006230
 **** Fit       0.005841
 **** Fit       0.005432
 **** Fit       0.004019
 **** Fit       0.004599
 **** Fit       0.005049
 **** Fit       0.005327
 **** Fit       0.005416
 **** Fit       0.005335
 **** Fit       0.005126
 **** Fit       0.004838
 **** Fit      -0.001131
 **** Fit      -0.000535
 **** Fit      -0.000042
 **** Fit       0.000311
 **** Fit       0.000519
 **** Fit       0.000607
 **** Fit       0.000616
 **** Fit      -0.001045
 **** Fit      -0.000285
 **** Fit       0.000409
 **** Fit       0.000962
 **** Fit       0.001324
 **** Fit       0.001492
 **** Fit       0.001506
 **** Fit       0.001431
 **** Fit       0.001327
 **** Fit      -0.001160
 **** Fit      -0.000299
 **** Fit       0.000573
 **** Fit       0.001362
 **** Fit       0.001972
 **** Fit       0.002338
 **** Fit       0.002457
 **** Fit       0.002393
 **** Fit       0.002235
 **** Fit       0.002061
 **** Fit       0.001913
 **** Fit      -0.001407
 **** Fit      -0.000547
 **** Fit       0.000399
 **** Fit       0.001356
 **** Fit       0.002220
 **** Fit       0.002873
 **** Fit       0.003236
 **** Fit       0.003312
 **** Fit       0.003184
 **** Fit       0.002965
 **** Fit       0.002748
 **** Fit       0.002575
 **** Fit      -0.000894
 **** Fit       0.000005
 **** Fit       0.000987
 **** Fit       0.001981
 **** Fit       0.002874
 **** Fit       0.003544
 **** Fit       0.003904
 **** Fit       0.003960
 **** Fit       0.003807
 **** Fit       0.003575
 **** Fit       0.003360
 **** Fit       0.003199
 **** Fit       0.003079
 **** Fit      -0.000411
 **** Fit       0.000482
 **** Fit       0.001445
 **** Fit       0.002410
 **** Fit       0.003276
 **** Fit       0.003929
 **** Fit       0.004289
 **** Fit       0.004364
 **** Fit       0.004246
 **** Fit       0.004061
 **** Fit       0.003898
 **** Fit       0.003783
 **** Fit       0.003697
 **** Fit       0.003597
 **** Fit       0.000055
 **** Fit       0.000912
 **** Fit       0.001812
 **** Fit       0.002696
 **** Fit       0.003485
 **** Fit       0.004093
 **** Fit       0.004460
 **** Fit       0.004591
 **** Fit       0.004559
 **** Fit       0.004465
 **** Fit       0.004384
 **** Fit       0.004335
 **** Fit       0.004291
 **** Fit       0.004205
 **** Fit       0.004046
 **** Fit       0.000540
 **** Fit       0.001356
 **** Fit       0.002184
 **** Fit       0.002973
 **** Fit       0.003669
 **** Fit       0.004221
 **** Fit       0.004593
 **** Fit       0.004786
 **** Fit       0.004847
 **** Fit       0.004847
 **** Fit       0.004845
 **** Fit       0.004855
 **** Fit       0.004845
 **** Fit       0.004765
 **** Fit       0.004586
 **** Fit       0.004306
 **** Fit       0.001073
 **** Fit       0.001874
 **** Fit       0.002663
 **** Fit       0.003391
 **** Fit       0.004019
 **** Fit       0.004518
 **** Fit       0.004872
 **** Fit       0.005086
 **** Fit       0.005191
 **** Fit       0.005240
 **** Fit       0.005281
 **** Fit       0.005322
 **** Fit       0.005326
 **** Fit       0.005240
 **** Fit       0.005035
 **** Fit       0.004715
 **** Fit       0.001664
 **** Fit       0.002494
 **** Fit       0.003302
 **** Fit       0.004035
 **** Fit       0.004643
 **** Fit       0.005098
 **** Fit       0.005393
 **** Fit       0.005549
 **** Fit       0.005612
 **** Fit       0.005638
 **** Fit       0.005669
 **** Fit       0.005704
 **** Fit       0.005697
 **** Fit       0.005591
 **** Fit       0.005356
 **** Fit       0.005001
 **** Fit       0.001415
 **** Fit       0.002279
 **** Fit       0.003181
 **** Fit       0.004065
 **** Fit       0.004863
 **** Fit       0.005502
 **** Fit       0.005925
 **** Fit       0.006123
 **** Fit       0.006148
 **** Fit       0.006086
 **** Fit       0.006018
 **** Fit       0.005986
 **** Fit       0.005976
 **** Fit       0.005931
 **** Fit       0.005791
 **** Fit       0.005527
 **** Fit       0.005145
 **** Fit       0.001923
 **** Fit       0.002854
 **** Fit       0.003840
 **** Fit       0.004822
 **** Fit       0.005714
 **** Fit       0.006408
 **** Fit       0.006812
 **** Fit       0.006908
 **** Fit       0.006776
 **** Fit       0.006552
 **** Fit       0.006350
 **** Fit       0.006216
 **** Fit       0.006128
 **** Fit       0.006022
 **** Fit       0.005838
 **** Fit       0.005544
 **** Fit       0.005144
 **** Fit       0.002330
 **** Fit       0.003308
 **** Fit       0.004356
 **** Fit       0.005410
 **** Fit       0.006370
 **** Fit       0.007106
 **** Fit       0.007500
 **** Fit       0.007524
 **** Fit       0.007273
 **** Fit       0.006915
 **** Fit       0.006586
 **** Fit       0.006341
 **** Fit       0.006159
 **** Fit       0.005979
 **** Fit       0.005742
 **** Fit       0.005419
 **** Fit       0.002592
 **** Fit       0.003578
 **** Fit       0.004637
 **** Fit       0.005702
 **** Fit       0.006670
 **** Fit       0.007405
 **** Fit       0.007787
 **** Fit       0.007785
 **** Fit       0.007492
 **** Fit       0.007071
 **** Fit       0.006663
 **** Fit       0.006331
 **** Fit       0.006063
 **** Fit       0.005810
 **** Fit       0.005523
 **** Fit       0.003637
 **** Fit       0.004649
 **** Fit       0.005660
 **** Fit       0.006571
 **** Fit       0.007260
 **** Fit       0.007622
 **** Fit       0.007632
 **** Fit       0.007364
 **** Fit       0.006956
 **** Fit       0.006532
 **** Fit       0.006155
 **** Fit       0.005828
 **** Fit       0.003499
 **** Fit       0.004417
 **** Fit       0.005325
 **** Fit       0.006135
 **** Fit       0.006748
 **** Fit       0.007085
 **** Fit       0.007123
 **** Fit       0.006918
 **** Fit       0.006570
 **** Fit       0.006179
 **** Fit       0.005801
 **** Fit       0.005450
 **** Fit       0.004002
 **** Fit       0.004781
 **** Fit       0.005471
 **** Fit       0.005998
 **** Fit       0.006302
 **** Fit       0.006368
 **** Fit       0.006232
 **** Fit       0.005962
 **** Fit       0.005629
 **** Fit       0.005281
 **** Fit       0.004115
 **** Fit       0.004686
 **** Fit       0.005125
 **** Fit       0.005392
 **** Fit       0.005476
 **** Fit       0.005396
 **** Fit       0.005198
 **** Fit       0.004929
 **** Fit       0.004441
 **** Fit       0.004528
 **** Fit       0.000098
 **** Fit       0.000532
 **** Fit       0.000844
 **** Fit       0.001031
 **** Fit       0.001113
 **** Fit      -0.000413
 **** Fit       0.000228
 **** Fit       0.000809
 **** Fit       0.001274
 **** Fit       0.001592
 **** Fit       0.001759
 **** Fit       0.001805
 **** Fit       0.001774
 **** Fit       0.000149
 **** Fit       0.000839
 **** Fit       0.001458
 **** Fit       0.001946
 **** Fit       0.002265
 **** Fit       0.002417
 **** Fit       0.002437
 **** Fit       0.002379
 **** Fit       0.002291
 **** Fit      -0.000074
 **** Fit       0.000652
 **** Fit       0.001363
 **** Fit       0.001996
 **** Fit       0.002492
 **** Fit       0.002811
 **** Fit       0.002958
 **** Fit       0.002972
 **** Fit       0.002911
 **** Fit       0.002824
 **** Fit       0.000364
 **** Fit       0.001086
 **** Fit       0.001787
 **** Fit       0.002408
 **** Fit       0.002895
 **** Fit       0.003215
 **** Fit       0.003371
 **** Fit       0.003403
 **** Fit       0.003365
 **** Fit       0.003302
 **** Fit       0.003234
 **** Fit       0.000776
 **** Fit       0.001473
 **** Fit       0.002141
 **** Fit       0.002729
 **** Fit       0.003195
 **** Fit       0.003513
 **** Fit       0.003689
 **** Fit       0.003756
 **** Fit       0.003759
 **** Fit       0.003735
 **** Fit       0.003697
 **** Fit       0.003639
 **** Fit       0.001192
 **** Fit       0.001860
 **** Fit       0.002487
 **** Fit       0.003034
 **** Fit       0.003472
 **** Fit       0.003784
 **** Fit       0.003978
 **** Fit       0.004079
 **** Fit       0.004120
 **** Fit       0.004131
 **** Fit       0.004119
 **** Fit       0.004075
 **** Fit       0.003981
 **** Fit       0.001641
 **** Fit       0.002292
 **** Fit       0.002892
 **** Fit       0.003406
 **** Fit       0.003813
 **** Fit       0.004108
 **** Fit       0.004300
 **** Fit       0.004410
 **** Fit       0.004467
 **** Fit       0.004493
 **** Fit       0.004492
 **** Fit       0.004451
 **** Fit       0.004347
 **** Fit       0.002129
 **** Fit       0.002789
 **** Fit       0.003386
 **** Fit       0.003884
 **** Fit       0.004264
 **** Fit       0.004524
 **** Fit       0.004682
 **** Fit       0.004764
 **** Fit       0.004802
 **** Fit       0.004813
 **** Fit       0.004801
 **** Fit       0.004745
 **** Fit       0.004624
 **** Fit       0.001916
 **** Fit       0.002634
 **** Fit       0.003326
 **** Fit       0.003944
 **** Fit       0.004445
 **** Fit       0.004801
 **** Fit       0.005012
 **** Fit       0.005106
 **** Fit       0.005125
 **** Fit       0.005108
 **** Fit       0.005076
 **** Fit       0.005028
 **** Fit       0.004943
 **** Fit       0.004795
 **** Fit       0.002343
 **** Fit       0.003101
 **** Fit       0.003833
 **** Fit       0.004484
 **** Fit       0.004998
 **** Fit       0.005335
 **** Fit       0.005495
 **** Fit       0.005515
 **** Fit       0.005452
 **** Fit       0.005360
 **** Fit       0.005265
 **** Fit       0.005164
 **** Fit       0.005036
 **** Fit       0.004854
 **** Fit       0.002680
 **** Fit       0.003464
 **** Fit       0.004225
 **** Fit       0.004901
 **** Fit       0.005424
 **** Fit       0.005747
 **** Fit       0.005866
 **** Fit       0.005823
 **** Fit       0.005686
 **** Fit       0.005520
 **** Fit       0.005357
 **** Fit       0.005197
 **** Fit       0.003671
 **** Fit       0.004433
 **** Fit       0.005108
 **** Fit       0.005625
 **** Fit       0.005936
 **** Fit       0.006031
 **** Fit       0.005952
 **** Fit       0.005770
 **** Fit       0.005551
 **** Fit       0.005333
 **** Fit       0.003696
 **** Fit       0.004426
 **** Fit       0.005070
 **** Fit       0.005563
 **** Fit       0.005858
 **** Fit       0.005945
 **** Fit       0.005860
 **** Fit       0.005666
 **** Fit       0.005425
 **** Fit       0.005174
 **** Fit       0.004218
 **** Fit       0.004806
 **** Fit       0.005258
 **** Fit       0.005533
 **** Fit       0.005621
 **** Fit       0.005551
 **** Fit       0.005371
 **** Fit       0.005135
 **** Fit       0.004368
 **** Fit       0.004768
 **** Fit       0.005018
 **** Fit       0.005110
 **** Fit       0.005062
 **** Fit       0.004911
 **** Fit       0.000965
 **** Fit       0.001350
 **** Fit       0.001630
 **** Fit       0.001803
 **** Fit       0.000946
 **** Fit       0.001427
 **** Fit       0.001818
 **** Fit       0.002099
 **** Fit       0.002272
 **** Fit       0.002353
 **** Fit       0.001344
 **** Fit       0.001822
 **** Fit       0.002210
 **** Fit       0.002492
 **** Fit       0.002668
 **** Fit       0.002756
 **** Fit       0.002783
 **** Fit       0.001703
 **** Fit       0.002167
 **** Fit       0.002546
 **** Fit       0.002825
 **** Fit       0.003007
 **** Fit       0.003108
 **** Fit       0.003150
 **** Fit       0.002051
 **** Fit       0.002497
 **** Fit       0.002861
 **** Fit       0.003134
 **** Fit       0.003319
 **** Fit       0.003429
 **** Fit       0.002846
 **** Fit       0.003192
 **** Fit       0.003451
 **** Fit       0.003628
 **** Fit       0.003736
 **** Fit       0.002809
 **** Fit       0.003227
 **** Fit       0.003555
 **** Fit       0.003792
 **** Fit       0.003947
 **** Fit       0.004035
 **** Fit       0.002712
 **** Fit       0.003210
 **** Fit       0.003623
 **** Fit       0.003934
 **** Fit       0.004143
 **** Fit       0.004262
 **** Fit       0.004313
 **** Fit       0.004318
 **** Fit       0.003070
 **** Fit       0.003576
 **** Fit       0.003988
 **** Fit       0.004283
 **** Fit       0.004461
 **** Fit       0.004539
 **** Fit       0.004545
 **** Fit       0.004506
 **** Fit       0.003342
 **** Fit       0.003853
 **** Fit       0.004261
 **** Fit       0.004542
 **** Fit       0.004693
 **** Fit       0.004734
 **** Fit       0.004697
 **** Fit       0.004613
 **** Fit       0.003490
 **** Fit       0.003994
 **** Fit       0.004392
 **** Fit       0.004658
 **** Fit       0.004789
 **** Fit       0.004803
 **** Fit       0.004735
 **** Fit       0.003975
 **** Fit       0.004354
 **** Fit       0.004604
 **** Fit       0.004721
 **** Fit       0.004722
 **** Fit       0.004638
 **** Fit       0.004152
 **** Fit       0.004384
 **** Fit       0.004492
 -----------------------------------------------------------------
 Leave Link  602 at Mon May 16 02:02:34 2016, MaxMem=  1073741824 cpu:        13.4

 Test job not archived.
 1\1\GINC-E08\SP\RHF\6-31G(d)\C13H18N2O3\WISE\16-May-2016\0\\# HF/6-31G
 * scf=tight iop(6/33=2) pop=chelpg\\Title Card Required\\0,1\C\H,1,1.0
 8532701\H,1,1.08511573,2,107.94462029\H,1,1.07939698,3,109.89911676,2,
 119.85179352,0\C,1,1.51437764,4,109.37736492,3,-121.13944989,0\O,5,1.2
 0348708,1,122.65723808,4,-0.78638095,0\N,5,1.35045554,1,114.95706635,6
 ,-179.75610191,0\H,7,0.9957799,5,121.33254017,1,-0.41006132,0\C,7,1.44
 261592,5,122.14789062,1,178.92167806,0\H,9,1.08147206,7,108.2341464,5,
 -38.16241933,0\C,9,1.54777824,7,111.29780185,5,81.52786664,0\H,11,1.08
 29559,9,106.32705285,7,-48.90984732,0\H,11,1.08510236,9,108.43422445,7
 ,66.24542473,0\C,11,1.5131804,9,114.38673,7,-169.96231437,0\C,14,1.382
 42259,11,122.07419032,9,-107.23570414,0\H,15,1.07643003,14,119.5950251
 6,11,-0.59459646,0\C,15,1.39206876,14,121.9160567,11,179.53937741,0\H,
 17,1.07274924,15,119.10929234,14,179.75336628,0\C,17,1.38392955,15,119
 .60924982,14,-0.05235635,0\O,19,1.34874681,17,124.80372741,15,-179.854
 48469,0\C,20,1.39881356,19,119.71801169,17,-2.0458711,0\H,21,1.0851613
 6,20,111.4657347,19,62.3887385,0\H,21,1.07959606,20,106.24898246,19,-1
 78.84430651,0\H,21,1.08490595,20,111.43263295,19,-60.01913293,0\C,19,1
 .39430061,17,119.33348726,15,0.15706409,0\H,25,1.07420755,19,118.56920
 424,17,179.37489687,0\C,25,1.37660458,19,120.21533908,17,0.07830915,0\
 H,27,1.07687318,25,119.19678192,19,178.95613021,0\C,9,1.52675716,7,106
 .99889503,5,-156.74460543,0\O,29,1.20566392,9,120.76556884,7,-30.61235
 283,0\N,29,1.34328411,9,116.14564464,7,149.33032167,0\H,31,0.9942154,2
 9,118.21152525,9,9.54356794,0\C,31,1.44767255,29,121.59054603,9,173.05
 730307,0\H,33,1.08493275,31,111.89475284,29,-73.35273184,0\H,33,1.0796
 2879,31,109.57610941,29,47.11448082,0\H,33,1.08167444,31,108.6903972,2
 9,166.23464095,0\\Version=AM64L-G09RevD.01\State=1-A\HF=-836.2877701\R
 MSD=9.892e-09\Dipole=0.2424429,-1.3625936,0.1486216\Quadrupole=-5.1798
 961,8.5187195,-3.3388233,5.881552,-4.4368968,5.2672863\PG=C01 [X(C13H1
 8N2O3)]\\@


 SIGN SEEN IN A RESTAURANT-
 WE RESERVE THE RIGHT TO SERVE REFUSE TO ANYONE.
 Job cpu time:       0 days  0 hours  5 minutes 59.3 seconds.
 File lengths (MBytes):  RWF=     52 Int=      0 D2E=      0 Chk=      4 Scr=      1
 Normal termination of Gaussian 09 at Mon May 16 02:02:34 2016.
