 Entering Gaussian System, Link 0=/programs/g09/g09
 Input=/scratch2/Wise/temp/temp_05192016/temp/NTYR_q.com
 Output=/scratch2/Wise/temp/temp_05192016/temp/NTYR_q.log
 Initial command:
 /programs/g09/l1.exe "/tmp/Wise/NTYR_q/Gau-25855.inp" -scrdir="/tmp/Wise/NTYR_q/"
 Entering Link 1 = /programs/g09/l1.exe PID=     25856.
  
 Copyright (c) 1988,1990,1992,1993,1995,1998,2003,2009,2013,
            Gaussian, Inc.  All Rights Reserved.
  
 This is part of the Gaussian(R) 09 program.  It is based on
 the Gaussian(R) 03 system (copyright 2003, Gaussian, Inc.),
 the Gaussian(R) 98 system (copyright 1998, Gaussian, Inc.),
 the Gaussian(R) 94 system (copyright 1995, Gaussian, Inc.),
 the Gaussian 92(TM) system (copyright 1992, Gaussian, Inc.),
 the Gaussian 90(TM) system (copyright 1990, Gaussian, Inc.),
 the Gaussian 88(TM) system (copyright 1988, Gaussian, Inc.),
 the Gaussian 86(TM) system (copyright 1986, Carnegie Mellon
 University), and the Gaussian 82(TM) system (copyright 1983,
 Carnegie Mellon University). Gaussian is a federally registered
 trademark of Gaussian, Inc.
  
 This software contains proprietary and confidential information,
 including trade secrets, belonging to Gaussian, Inc.
  
 This software is provided under written license and may be
 used, copied, transmitted, or stored only in accord with that
 written license.
  
 The following legend is applicable only to US Government
 contracts under FAR:
  
                    RESTRICTED RIGHTS LEGEND
  
 Use, reproduction and disclosure by the US Government is
 subject to restrictions as set forth in subparagraphs (a)
 and (c) of the Commercial Computer Software - Restricted
 Rights clause in FAR 52.227-19.
  
 Gaussian, Inc.
 340 Quinnipiac St., Bldg. 40, Wallingford CT 06492
  
  
 ---------------------------------------------------------------
 Warning -- This program may not be used in any manner that
 competes with the business of Gaussian, Inc. or will provide
 assistance to any competitor of Gaussian, Inc.  The licensee
 of this program is prohibited from giving any competitor of
 Gaussian, Inc. access to this program.  By using this program,
 the user acknowledges that Gaussian, Inc. is engaged in the
 business of creating and licensing software in the field of
 computational chemistry and represents and warrants to the
 licensee that it is not a competitor of Gaussian, Inc. and that
 it will not use this program in any manner prohibited above.
 ---------------------------------------------------------------
  

 Cite this work as:
 Gaussian 09, Revision D.01,
 M. J. Frisch, G. W. Trucks, H. B. Schlegel, G. E. Scuseria, 
 M. A. Robb, J. R. Cheeseman, G. Scalmani, V. Barone, B. Mennucci, 
 G. A. Petersson, H. Nakatsuji, M. Caricato, X. Li, H. P. Hratchian, 
 A. F. Izmaylov, J. Bloino, G. Zheng, J. L. Sonnenberg, M. Hada, 
 M. Ehara, K. Toyota, R. Fukuda, J. Hasegawa, M. Ishida, T. Nakajima, 
 Y. Honda, O. Kitao, H. Nakai, T. Vreven, J. A. Montgomery, Jr., 
 J. E. Peralta, F. Ogliaro, M. Bearpark, J. J. Heyd, E. Brothers, 
 K. N. Kudin, V. N. Staroverov, T. Keith, R. Kobayashi, J. Normand, 
 K. Raghavachari, A. Rendell, J. C. Burant, S. S. Iyengar, J. Tomasi, 
 M. Cossi, N. Rega, J. M. Millam, M. Klene, J. E. Knox, J. B. Cross, 
 V. Bakken, C. Adamo, J. Jaramillo, R. Gomperts, R. E. Stratmann, 
 O. Yazyev, A. J. Austin, R. Cammi, C. Pomelli, J. W. Ochterski, 
 R. L. Martin, K. Morokuma, V. G. Zakrzewski, G. A. Voth, 
 P. Salvador, J. J. Dannenberg, S. Dapprich, A. D. Daniels, 
 O. Farkas, J. B. Foresman, J. V. Ortiz, J. Cioslowski, 
 and D. J. Fox, Gaussian, Inc., Wallingford CT, 2013.
 
 ******************************************
 Gaussian 09:  AM64L-G09RevD.01 24-Apr-2013
                18-May-2016 
 ******************************************
 %mem=8GB
 %nproc=8
 Will use up to    8 processors via shared memory.
 --------------------------------------------
 # HF/6-31G* scf=tight iop(6/33=2) pop=chelpg
 --------------------------------------------
 1/38=1/1;
 2/12=2,17=6,18=5,40=1/2;
 3/5=1,6=6,7=1,11=9,16=1,25=1,30=1/1,2,3;
 4//1;
 5/5=2,32=2,38=5/2;
 6/7=2,8=2,9=2,10=2,15=8,20=3,28=1,33=2/1,2;
 99/5=1,9=1/99;
 -------------------
 Title Card Required
 -------------------
 Symbolic Z-matrix:
 Charge =  1 Multiplicity = 1
 N
 H                    1    B1
 H                    1    B2       2    A1
 H                    1    B3       2    A2       3    D1       0
 C                    1    B4       2    A3       3    D2       0
 H                    5    B5       1    A4       2    D3       0
 C                    5    B6       1    A5       2    D4       0
 H                    7    B7       5    A6       1    D5       0
 H                    7    B8       5    A7       1    D6       0
 C                    7    B9       5    A8       1    D7       0
 C                    10   B10      7    A9       5    D8       0
 H                    11   B11      10   A10      7    D9       0
 C                    11   B12      10   A11      7    D10      0
 H                    13   B13      11   A12      10   D11      0
 C                    13   B14      11   A13      10   D12      0
 O                    15   B15      13   A14      11   D13      0
 C                    16   B16      15   A15      13   D14      0
 H                    17   B17      16   A16      15   D15      0
 H                    17   B18      16   A17      15   D16      0
 H                    17   B19      16   A18      15   D17      0
 C                    15   B20      13   A19      11   D18      0
 H                    21   B21      15   A20      13   D19      0
 C                    21   B22      15   A21      13   D20      0
 H                    23   B23      21   A22      15   D21      0
 C                    5    B24      1    A23      7    D22      0
 O                    25   B25      5    A24      1    D23      0
 N                    25   B26      5    A25      1    D24      0
 H                    27   B27      25   A26      5    D25      0
 C                    27   B28      25   A27      5    D26      0
 H                    29   B29      27   A28      25   D27      0
 H                    29   B30      27   A29      25   D28      0
 H                    29   B31      27   A30      25   D29      0
       Variables:
  B1                    1.00894                  
  B2                    1.01047                  
  B3                    1.00925                  
  B4                    1.54                     
  B5                    1.08059                  
  B6                    1.54108                  
  B7                    1.08761                  
  B8                    1.08529                  
  B9                    1.51453                  
  B10                   1.3836                   
  B11                   1.07623                  
  B12                   1.38958                  
  B13                   1.07201                  
  B14                   1.3874                   
  B15                   1.33334                  
  B16                   1.40767                  
  B17                   1.08386                  
  B18                   1.07792                  
  B19                   1.08354                  
  B20                   1.39854                  
  B21                   1.07346                  
  B22                   1.37338                  
  B23                   1.07763                  
  B24                   1.53751                  
  B25                   1.20631                  
  B26                   1.32435                  
  B27                   0.9956                   
  B28                   1.45929                  
  B29                   1.08217                  
  B30                   1.07907                  
  B31                   1.07959                  
  A1                  109.07617                  
  A2                  110.94268                  
  A3                  109.66837                  
  A4                  108.23413                  
  A5                  108.12978                  
  A6                  107.87293                  
  A7                  108.92779                  
  A8                  113.39516                  
  A9                  121.28225                  
  A10                 119.98965                  
  A11                 121.60994                  
  A12                 119.10533                  
  A13                 119.70567                  
  A14                 125.00073                  
  A15                 120.49618                  
  A16                 111.10297                  
  A17                 105.93472                  
  A18                 111.05569                  
  A19                 119.26169                  
  A20                 118.46867                  
  A21                 120.24289                  
  A22                 118.54028                  
  A23                 103.29429                  
  A24                 117.3735                   
  A25                 117.10212                  
  A26                 119.32104                  
  A27                 121.61409                  
  A28                 111.15189                  
  A29                 109.63562                  
  A30                 108.18481                  
  D1                 -117.08338                  
  D2                  119.87833                  
  D3                  -53.03997                  
  D4                   66.65034                  
  D5                  -48.08329                  
  D6                   67.63716                  
  D7                 -169.32486                  
  D8                 -111.55199                  
  D9                    0.54927                  
  D10                -179.03788                  
  D11                 179.56794                  
  D12                   0.12905                  
  D13                -179.92623                  
  D14                  -2.60428                  
  D15                  62.66272                  
  D16                -178.66765                  
  D17                 -59.92589                  
  D18                   0.0604                   
  D19                 179.21787                  
  D20                   0.17613                  
  D21                 178.32865                  
  D22                 123.06531                  
  D23                  -6.85329                  
  D24                 171.65116                  
  D25                   7.55809                  
  D26                 179.0754                   
  D27                 -75.13245                  
  D28                  45.51554                  
  D29                 164.68379                  
 
                          Input orientation:                          
 ---------------------------------------------------------------------
 Center     Atomic      Atomic             Coordinates (Angstroms)
 Number     Number       Type             X           Y           Z
 ---------------------------------------------------------------------
      1          7           0        0.000000    0.000000    0.000000
      2          1           0        0.000000    0.000000    1.008941
      3          1           0        0.954983    0.000000   -0.330248
      4          1           0       -0.429144    0.839221   -0.360741
      5          6           0       -0.722407   -1.257404   -0.518326
      6          1           0       -0.273392   -2.122103   -0.051043
      7          6           0       -2.210589   -1.148510   -0.133123
      8          1           0       -2.264107   -0.873272    0.917722
      9          1           0       -2.661375   -0.337189   -0.695619
     10          6           0       -2.984809   -2.431011   -0.355757
     11          6           0       -3.954228   -2.523594   -1.338614
     12          1           0       -4.164212   -1.676635   -1.968572
     13          6           0       -4.682343   -3.690601   -1.535818
     14          1           0       -5.428959   -3.715747   -2.304668
     15          6           0       -4.441650   -4.795297   -0.731712
     16          8           0       -5.074979   -5.964582   -0.828969
     17          6           0       -6.112035   -6.139643   -1.764597
     18          1           0       -5.746862   -6.022681   -2.778360
     19          1           0       -6.467715   -7.147839   -1.626958
     20          1           0       -6.922101   -5.443395   -1.582680
     21          6           0       -3.467159   -4.713756    0.268103
     22          1           0       -3.300257   -5.571810    0.891166
     23          6           0       -2.760428   -3.550619    0.451995
     24          1           0       -2.035245   -3.509169    1.248037
     25          6           0       -0.422020   -1.241454   -2.026127
     26          8           0        0.142468   -0.271711   -2.468987
     27          7           0       -0.778772   -2.309155   -2.723729
     28          1           0       -1.319702   -3.020209   -2.284389
     29          6           0       -0.558760   -2.390440   -4.164045
     30          1           0       -1.271804   -1.780391   -4.703029
     31          1           0        0.439802   -2.054857   -4.397837
     32          1           0       -0.668870   -3.421651   -4.464027
 ---------------------------------------------------------------------
                    Distance matrix (angstroms):
                    1          2          3          4          5
     1  N    0.000000
     2  H    1.008941   0.000000
     3  H    1.010473   1.644816   0.000000
     4  H    1.009252   1.662674   1.618959   0.000000
     5  C    1.539999   2.106058   2.104774   2.122892   0.000000
     6  H    2.140250   2.387809   2.467829   2.981545   1.080589
     7  C    2.494695   2.740454   3.373245   2.678886   1.541080
     8  H    2.594417   2.428396   3.561260   2.816769   2.141643
     9  H    2.771372   3.178386   3.650376   2.545376   2.153562
    10  C    3.865936   4.084275   4.629517   4.150406   2.553869
    11  C    4.878149   5.245518   5.611211   4.969002   3.566620
    12  H    4.901738   5.386775   5.630397   4.781776   3.758323
    13  C    6.156590   6.482335   6.844953   6.323748   4.757818
    14  H    6.970787   7.366164   7.645903   7.037382   5.602331
    15  C    6.577122   6.764096   7.230470   6.927165   5.137606
    16  O    7.875204   8.044225   8.496199   8.251955   6.418638
    17  C    8.841154   9.096412   9.470761   9.108820   7.378181
    18  H    8.776013   9.145642   9.337059   9.011587   7.284283
    19  H    9.775988   9.993543  10.386025  10.092610   8.302702
    20  H    8.947118   9.179463   9.656480   9.117176   7.555898
    21  C    5.857693   5.898265   6.490983   6.360859   4.483136
    22  H    6.536890   6.476931   7.116459   7.135256   5.219778
    23  C    4.520084   4.531782   5.198373   5.036479   3.217746
    24  H    4.244300   4.063700   4.873060   4.906753   3.148655
    25  C    2.413400   3.306198   2.512638   2.665102   1.537515
    26  O    2.487975   3.491433   2.303956   2.450635   2.350463
    27  N    3.654776   4.457747   3.750581   3.951990   2.444005
    28  H    4.010201   4.659324   4.256116   4.403262   2.565779
    29  C    4.833807   5.725924   4.764832   4.991256   3.821233
    30  H    5.187076   6.116688   5.220114   5.140808   4.252892
    31  H    4.874098   5.800785   4.586189   5.042707   4.127622
    32  H    5.664153   6.489104   5.606490   5.920258   4.500599
                    6          7          8          9         10
     6  H    0.000000
     7  C    2.169644   0.000000
     8  H    2.541857   1.087610   0.000000
     9  H    3.050223   1.085289   1.745874   0.000000
    10  C    2.745917   1.514527   2.137220   2.145742   0.000000
    11  C    3.920152   2.526725   3.266669   2.620168   1.383602
    12  H    4.360486   2.732111   3.547743   2.381815   2.135708
    13  C    4.909541   3.813049   4.450288   4.004449   2.420894
    14  H    5.847940   4.654484   5.336642   4.654376   3.379744
    15  C    4.998365   4.316827   4.779603   4.800563   2.802423
    16  O    6.198795   5.646546   6.072344   6.124607   4.132658
    17  C    7.291547   6.541743   7.052379   6.835074   5.051567
    18  H    7.253389   6.577237   7.232359   6.795797   5.137902
    19  H    8.130878   7.506438   7.969687   7.857516   5.999587
    20  H    7.588296   6.538012   6.988201   6.709248   5.107061
    21  C    4.125369   3.801438   4.076599   4.553283   2.415116
    22  H    4.685099   4.669274   4.811504   5.507024   3.393956
    23  C    2.911882   2.532749   2.762504   3.413644   1.398690
    24  H    2.591465   2.740631   2.666354   3.772439   2.153195
    25  C    2.167623   2.605971   3.492147   2.757292   3.282236
    26  O    3.073001   3.429565   4.198009   3.318231   4.348354
    27  N    2.726472   3.179377   4.186663   3.397952   3.238633
    28  H    2.624727   2.987454   3.969226   3.394536   2.615216
    29  C    4.131613   4.529819   5.570850   4.546076   4.515575
    30  H    4.770175   4.707933   5.779306   4.480299   4.717676
    31  H    4.405426   5.102335   6.079674   5.125827   5.311108
    32  H    4.617321   5.128431   6.164596   5.261643   4.819007
                   11         12         13         14         15
    11  C    0.000000
    12  H    1.076234   0.000000
    13  C    1.389585   2.124099   0.000000
    14  H    2.128220   2.422917   1.072007   0.000000
    15  C    2.401363   3.366430   1.387397   2.148115   0.000000
    16  O    3.654616   4.529314   2.413460   2.712978   1.333339
    17  C    4.232423   4.873814   2.845025   2.575566   2.379980
    18  H    4.186886   4.695600   2.848809   2.376424   2.720077
    19  H    5.271091   5.946167   3.892089   3.649323   3.231232
    20  H    4.170501   4.684373   2.844469   2.394892   2.701262
    21  C    2.759634   3.835714   2.403673   3.385828   1.398538
    22  H    3.832912   4.908860   3.367396   4.264938   2.130607
    23  C    2.384580   3.367725   2.768529   3.840250   2.403516
    24  H    3.368177   4.270510   3.845762   4.917488   3.371100
    25  C    3.820085   3.767850   4.938530   5.591883   5.519306
    26  O    4.809536   4.557600   5.986519   6.552037   6.670464
    27  N    3.471030   3.525840   4.307829   4.876305   4.854452
    28  H    2.842858   3.161671   3.509577   4.167754   3.912582
    29  C    4.419275   4.281227   5.059835   5.378899   5.713237
    30  H    4.366582   3.981713   5.031094   5.174908   5.908379
    31  H    5.374575   5.219322   6.091238   6.448432   6.691715
    32  H    4.622585   4.635709   4.975410   5.235243   5.481874
                   16         17         18         19         20
    16  O    0.000000
    17  C    1.407669   0.000000
    18  H    2.062748   1.083857   0.000000
    19  H    1.994141   1.077920   1.763898   0.000000
    20  H    2.061935   1.083541   1.773812   1.764526   0.000000
    21  C    2.313702   3.627725   4.023837   4.303412   3.986777
    22  H    2.502553   3.909170   4.433350   4.342535   4.387957
    23  C    3.581233   4.780125   5.046293   5.568304   5.004201
    24  H    4.425267   5.711005   6.025423   6.415006   5.969552
    25  C    6.737296   7.512452   7.195828   8.461392   7.752678
    26  O    7.894314   8.605092   8.237328   9.575211   8.800000
    27  N    5.950601   6.635983   6.202836   7.548499   6.990418
    28  H    4.988956   5.741733   5.372019   6.631107   6.144192
    29  C    6.655333   7.117074   6.483032   7.999088   7.515058
    30  H    6.854191   7.145999   6.459684   8.078936   7.421593
    31  H    7.644317   8.157573   7.526031   9.018316   8.579331
    32  H    6.252515   6.656009   5.949188   7.453861   7.175829
                   21         22         23         24         25
    21  C    0.000000
    22  H    1.073462   0.000000
    23  C    1.373380   2.137638   0.000000
    24  H    2.112269   2.445833   1.077632   0.000000
    25  C    5.156864   5.962116   4.116004   4.297113   0.000000
    26  O    6.344512   7.157795   5.264046   5.388862   1.206305
    27  N    4.686213   5.483637   3.943782   4.335168   1.324352
    28  H    3.740973   4.529615   3.137646   3.637185   2.009105
    29  C    5.787963   6.572068   5.244157   5.720332   2.430959
    30  H    6.175465   7.055813   5.650131   6.243933   2.859789
    31  H    6.641166   7.370926   5.999971   6.333780   2.651295
    32  H    5.647390   6.342356   5.344018   5.873867   3.279871
                   26         27         28         29         30
    26  O    0.000000
    27  N    2.250501   0.000000
    28  H    3.118695   0.995602   0.000000
    29  C    2.802491   1.459288   2.123382   0.000000
    30  H    3.044212   2.107202   2.718321   1.082171   0.000000
    31  H    2.643573   2.086199   2.914520   1.079074   1.760133
    32  H    3.815833   2.068420   2.309884   1.079588   1.764763
                   31         32
    31  H    0.000000
    32  H    1.761154   0.000000
 Stoichiometry    C11H17N2O2(1+)
 Framework group  C1[X(C11H17N2O2)]
 Deg. of freedom    90
 Full point group                 C1      NOp   1
 Largest Abelian subgroup         C1      NOp   1
 Largest concise Abelian subgroup C1      NOp   1
                         Standard orientation:                         
 ---------------------------------------------------------------------
 Center     Atomic      Atomic             Coordinates (Angstroms)
 Number     Number       Type             X           Y           Z
 ---------------------------------------------------------------------
      1          7           0        3.599150   -1.586965   -0.009069
      2          1           0        3.513532   -2.567669   -0.230091
      3          1           0        4.321710   -1.180147   -0.586531
      4          1           0        3.889233   -1.457044    0.948826
      5          6           0        2.261354   -0.875126   -0.283267
      6          1           0        1.959329   -1.101291   -1.295839
      7          6           0        1.220513   -1.406910    0.721115
      8          1           0        1.279876   -2.492898    0.719802
      9          1           0        1.492975   -1.076769    1.718423
     10          6           0       -0.197151   -0.981696    0.399847
     11          6           0       -0.881837   -0.093359    1.210042
     12          1           0       -0.404248    0.316258    2.083199
     13          6           0       -2.189467    0.286210    0.932596
     14          1           0       -2.684345    0.971912    1.591465
     15          6           0       -2.835039   -0.233977   -0.179840
     16          8           0       -4.083767    0.057454   -0.545269
     17          6           0       -4.877826    0.911709    0.242926
     18          1           0       -4.446557    1.904526    0.298318
     19          1           0       -5.834845    0.964801   -0.250234
     20          1           0       -5.008204    0.510964    1.241158
     21          6           0       -2.155624   -1.135944   -1.004922
     22          1           0       -2.671516   -1.540323   -1.855013
     23          6           0       -0.865052   -1.503656   -0.712717
     24          1           0       -0.376965   -2.221253   -1.351557
     25          6           0        2.618632    0.614007   -0.146204
     26          8           0        3.727223    0.884703    0.244848
     27          7           0        1.691183    1.491785   -0.497276
     28          1           0        0.776211    1.170475   -0.722687
     29          6           0        1.918055    2.929205   -0.388302
     30          1           0        1.860706    3.256614    0.641557
     31          1           0        2.892683    3.173340   -0.781875
     32          1           0        1.161094    3.434733   -0.968786
 ---------------------------------------------------------------------
 Rotational constants (GHZ):      1.1439906      0.3001985      0.2599525
 Standard basis: 6-31G(d) (6D, 7F)
 There are   259 symmetry adapted cartesian basis functions of A   symmetry.
 There are   259 symmetry adapted basis functions of A   symmetry.
   259 basis functions,   488 primitive gaussians,   259 cartesian basis functions
    56 alpha electrons       56 beta electrons
       nuclear repulsion energy      1008.9190011270 Hartrees.
 NAtoms=   32 NActive=   32 NUniq=   32 SFac= 1.00D+00 NAtFMM=   60 NAOKFM=F Big=F
 Integral buffers will be    131072 words long.
 Raffenetti 1 integral format.
 Two-electron integral symmetry is turned on.
 One-electron integrals computed using PRISM.
 NBasis=   259 RedAO= T EigKep=  4.01D-04  NBF=   259
 NBsUse=   259 1.00D-06 EigRej= -1.00D+00 NBFU=   259
 ExpMin= 1.61D-01 ExpMax= 5.48D+03 ExpMxC= 8.25D+02 IAcc=1 IRadAn=         1 AccDes= 0.00D+00
 Harris functional with IExCor=  205 and IRadAn=       1 diagonalized for initial guess.
 HarFok:  IExCor=  205 AccDes= 0.00D+00 IRadAn=         1 IDoV= 1 UseB2=F ITyADJ=14
 ICtDFT=  3500011 ScaDFX=  1.000000  1.000000  1.000000  1.000000
 FoFCou: FMM=F IPFlag=           0 FMFlag=      100000 FMFlg1=           0
         NFxFlg=           0 DoJE=T BraDBF=F KetDBF=T FulRan=T
         wScrn=  0.000000 ICntrl=     500 IOpCl=  0 I1Cent=   200000004 NGrid=           0
         NMat0=    1 NMatS0=      1 NMatT0=    0 NMatD0=    1 NMtDS0=    0 NMtDT0=    0
 Petite list used in FoFCou.
 Keep R1 ints in memory in canonical form, NReq=575862991.
 Requested convergence on RMS density matrix=1.00D-08 within 128 cycles.
 Requested convergence on MAX density matrix=1.00D-06.
 Requested convergence on             energy=1.00D-06.
 No special actions if energy rises.
 SCF Done:  E(RHF) =  -684.867577771     A.U. after   15 cycles
            NFock= 15  Conv=0.58D-08     -V/T= 2.0014

 **********************************************************************

            Population analysis using the SCF density.

 **********************************************************************

 Orbital symmetries:
 BldTbl:  Degeneracy threshold= 1.00D-02
       Occupied  (A) (A) (A) (A) (A) (A) (A) (A) (A) (A) (A) (A)
                 (A) (A) (A) (A) (A) (A) (A) (A) (A) (A) (A) (A)
                 (A) (A) (A) (A) (A) (A) (A) (A) (A) (A) (A) (A)
                 (A) (A) (A) (A) (A) (A) (A) (A) (A) (A) (A) (A)
                 (A) (A) (A) (A) (A) (A) (A) (A)
       Virtual   (A) (A) (A) (A) (A) (A) (A) (A) (A) (A) (A) (A)
                 (A) (A) (A) (A) (A) (A) (A) (A) (A) (A) (A) (A)
                 (A) (A) (A) (A) (A) (A) (A) (A) (A) (A) (A) (A)
                 (A) (A) (A) (A) (A) (A) (A) (A) (A) (A) (A) (A)
                 (A) (A) (A) (A) (A) (A) (A) (A) (A) (A) (A) (A)
                 (A) (A) (A) (A) (A) (A) (A) (A) (A) (A) (A) (A)
                 (A) (A) (A) (A) (A) (A) (A) (A) (A) (A) (A) (A)
                 (A) (A) (A) (A) (A) (A) (A) (A) (A) (A) (A) (A)
                 (A) (A) (A) (A) (A) (A) (A) (A) (A) (A) (A) (A)
                 (A) (A) (A) (A) (A) (A) (A) (A) (A) (A) (A) (A)
                 (A) (A) (A) (A) (A) (A) (A) (A) (A) (A) (A) (A)
                 (A) (A) (A) (A) (A) (A) (A) (A) (A) (A) (A) (A)
                 (A) (A) (A) (A) (A) (A) (A) (A) (A) (A) (A) (A)
                 (A) (A) (A) (A) (A) (A) (A) (A) (A) (A) (A) (A)
                 (A) (A) (A) (A) (A) (A) (A) (A) (A) (A) (A) (A)
                 (A) (A) (A) (A) (A) (A) (A) (A) (A) (A) (A) (A)
                 (A) (A) (A) (A) (A) (A) (A) (A) (A) (A) (A)
 The electronic state is 1-A.
 Alpha  occ. eigenvalues --  -20.68822 -20.68079 -15.87115 -15.72984 -11.50753
 Alpha  occ. eigenvalues --  -11.47779 -11.41198 -11.40367 -11.37479 -11.36884
 Alpha  occ. eigenvalues --  -11.36261 -11.35915 -11.35887 -11.33969 -11.33813
 Alpha  occ. eigenvalues --   -1.55709  -1.52045  -1.48476  -1.38204  -1.28328
 Alpha  occ. eigenvalues --   -1.22484  -1.14553  -1.13769  -1.09263  -1.05979
 Alpha  occ. eigenvalues --   -1.02474  -0.96979  -0.95530  -0.94331  -0.93686
 Alpha  occ. eigenvalues --   -0.90616  -0.85367  -0.84177  -0.82705  -0.79199
 Alpha  occ. eigenvalues --   -0.77783  -0.76967  -0.75973  -0.75313  -0.74034
 Alpha  occ. eigenvalues --   -0.73230  -0.71594  -0.70518  -0.70393  -0.67581
 Alpha  occ. eigenvalues --   -0.67216  -0.66540  -0.63761  -0.63097  -0.62250
 Alpha  occ. eigenvalues --   -0.58423  -0.58196  -0.57110  -0.53186  -0.45789
 Alpha  occ. eigenvalues --   -0.42036
 Alpha virt. eigenvalues --    0.01038   0.02105   0.02754   0.03928   0.08090
 Alpha virt. eigenvalues --    0.08933   0.11027   0.12250   0.12600   0.13804
 Alpha virt. eigenvalues --    0.15624   0.16642   0.17302   0.18605   0.19941
 Alpha virt. eigenvalues --    0.21206   0.21859   0.22465   0.22892   0.23499
 Alpha virt. eigenvalues --    0.23804   0.24117   0.25231   0.26341   0.26972
 Alpha virt. eigenvalues --    0.29441   0.31267   0.35621   0.37439   0.37845
 Alpha virt. eigenvalues --    0.40419   0.40804   0.45294   0.46871   0.55312
 Alpha virt. eigenvalues --    0.56975   0.58010   0.58969   0.59971   0.62402
 Alpha virt. eigenvalues --    0.62689   0.63501   0.64125   0.66078   0.66696
 Alpha virt. eigenvalues --    0.67264   0.69012   0.70436   0.71182   0.72004
 Alpha virt. eigenvalues --    0.72431   0.74316   0.74885   0.75592   0.76678
 Alpha virt. eigenvalues --    0.77043   0.79453   0.80198   0.81830   0.83620
 Alpha virt. eigenvalues --    0.85516   0.87393   0.89043   0.89784   0.90229
 Alpha virt. eigenvalues --    0.91468   0.93434   0.93931   0.95376   0.97179
 Alpha virt. eigenvalues --    0.97664   0.99013   0.99061   1.00298   1.01668
 Alpha virt. eigenvalues --    1.02249   1.02665   1.03415   1.03594   1.04441
 Alpha virt. eigenvalues --    1.05230   1.05691   1.06890   1.08865   1.09045
 Alpha virt. eigenvalues --    1.10446   1.11237   1.11923   1.14958   1.15178
 Alpha virt. eigenvalues --    1.16857   1.17231   1.19682   1.23929   1.24642
 Alpha virt. eigenvalues --    1.26401   1.29393   1.30776   1.32164   1.34550
 Alpha virt. eigenvalues --    1.36169   1.38943   1.42738   1.45309   1.47119
 Alpha virt. eigenvalues --    1.49373   1.52766   1.53288   1.54539   1.56632
 Alpha virt. eigenvalues --    1.59581   1.61391   1.61533   1.62870   1.63701
 Alpha virt. eigenvalues --    1.66014   1.67542   1.70934   1.72558   1.77996
 Alpha virt. eigenvalues --    1.82720   1.86869   1.87852   1.90368   1.94447
 Alpha virt. eigenvalues --    1.96057   1.97026   1.99791   2.01443   2.03156
 Alpha virt. eigenvalues --    2.04619   2.06575   2.07495   2.10160   2.11171
 Alpha virt. eigenvalues --    2.12843   2.14423   2.16654   2.17462   2.18818
 Alpha virt. eigenvalues --    2.21595   2.21895   2.23625   2.26947   2.27816
 Alpha virt. eigenvalues --    2.30327   2.30908   2.32956   2.34391   2.35741
 Alpha virt. eigenvalues --    2.37774   2.38581   2.39888   2.46581   2.47705
 Alpha virt. eigenvalues --    2.48994   2.50049   2.51329   2.52737   2.54035
 Alpha virt. eigenvalues --    2.56746   2.59336   2.59704   2.60388   2.62732
 Alpha virt. eigenvalues --    2.66956   2.67111   2.74822   2.77722   2.80403
 Alpha virt. eigenvalues --    2.81996   2.86592   2.89156   2.90596   2.92197
 Alpha virt. eigenvalues --    2.93174   2.95070   2.95143   3.03456   3.06833
 Alpha virt. eigenvalues --    3.13311   3.16737   3.20921   3.24741   3.25753
 Alpha virt. eigenvalues --    3.41946   3.49666   3.72545   4.02769   4.26602
 Alpha virt. eigenvalues --    4.34468   4.37865   4.43314   4.47554   4.54211
 Alpha virt. eigenvalues --    4.57930   4.58973   4.65220   4.70409   4.74778
 Alpha virt. eigenvalues --    4.83948   4.86169   5.09208
          Condensed to atoms (all electrons):
               1          2          3          4          5          6
     1  N    6.940904   0.306183   0.300691   0.300961   0.153808  -0.029731
     2  H    0.306183   0.267564  -0.008316  -0.007480  -0.019868  -0.001298
     3  H    0.300691  -0.008316   0.245402  -0.009147  -0.018566  -0.001496
     4  H    0.300961  -0.007480  -0.009147   0.248556  -0.015753   0.002321
     5  C    0.153808  -0.019868  -0.018566  -0.015753   5.432604   0.391227
     6  H   -0.029731  -0.001298  -0.001496   0.002321   0.391227   0.419579
     7  C   -0.060480   0.000283   0.003046  -0.001083   0.275765  -0.033097
     8  H   -0.001103   0.002521  -0.000050  -0.000166  -0.057402  -0.001848
     9  H   -0.001116  -0.000058  -0.000133   0.002526  -0.040968   0.003000
    10  C    0.002797  -0.000128  -0.000067   0.000014  -0.048674   0.000671
    11  C   -0.000030  -0.000001   0.000001   0.000005  -0.001921   0.000368
    12  H   -0.000007   0.000000   0.000000   0.000000  -0.000006   0.000002
    13  C    0.000000   0.000000   0.000000   0.000000  -0.000089  -0.000013
    14  H    0.000000   0.000000   0.000000   0.000000   0.000001   0.000000
    15  C    0.000000   0.000000   0.000000   0.000000   0.000000  -0.000001
    16  O    0.000000   0.000000   0.000000   0.000000   0.000000   0.000000
    17  C    0.000000   0.000000   0.000000   0.000000   0.000000   0.000000
    18  H    0.000000   0.000000   0.000000   0.000000   0.000000   0.000000
    19  H    0.000000   0.000000   0.000000   0.000000   0.000000   0.000000
    20  H    0.000000   0.000000   0.000000   0.000000   0.000000   0.000000
    21  C    0.000001   0.000000   0.000000   0.000000   0.000059  -0.000013
    22  H    0.000000   0.000000   0.000000   0.000000   0.000000   0.000004
    23  C   -0.000014   0.000025   0.000001  -0.000004  -0.004351   0.001591
    24  H   -0.000048   0.000008   0.000002  -0.000001  -0.000226   0.000987
    25  C   -0.055510   0.003480  -0.000265  -0.001121   0.339731  -0.027786
    26  O   -0.013878   0.000998   0.011728   0.007789  -0.095570   0.001032
    27  N    0.002551  -0.000008   0.000229   0.000222  -0.126756   0.003302
    28  H    0.000083  -0.000003  -0.000019  -0.000006  -0.000681   0.000551
    29  C   -0.000073   0.000001  -0.000013  -0.000004   0.004010  -0.000084
    30  H    0.000001   0.000000  -0.000001   0.000001  -0.000037   0.000001
    31  H   -0.000003   0.000000   0.000006  -0.000001   0.000038  -0.000006
    32  H    0.000000   0.000000   0.000000   0.000000  -0.000020  -0.000003
               7          8          9         10         11         12
     1  N   -0.060480  -0.001103  -0.001116   0.002797  -0.000030  -0.000007
     2  H    0.000283   0.002521  -0.000058  -0.000128  -0.000001   0.000000
     3  H    0.003046  -0.000050  -0.000133  -0.000067   0.000001   0.000000
     4  H   -0.001083  -0.000166   0.002526   0.000014   0.000005   0.000000
     5  C    0.275765  -0.057402  -0.040968  -0.048674  -0.001921  -0.000006
     6  H   -0.033097  -0.001848   0.003000   0.000671   0.000368   0.000002
     7  C    5.164284   0.403350   0.400587   0.330223  -0.036924  -0.002685
     8  H    0.403350   0.492548  -0.021404  -0.034062  -0.000435   0.000030
     9  H    0.400587  -0.021404   0.465252  -0.035479   0.001620   0.002618
    10  C    0.330223  -0.034062  -0.035479   4.917692   0.577357  -0.034319
    11  C   -0.036924  -0.000435   0.001620   0.577357   4.900240   0.379929
    12  H   -0.002685   0.000030   0.002618  -0.034319   0.379929   0.450399
    13  C    0.003668  -0.000037   0.000201  -0.053480   0.501795  -0.021383
    14  H   -0.000122   0.000002  -0.000008   0.001897  -0.025957  -0.001300
    15  C    0.000227   0.000018  -0.000008  -0.024167  -0.025248   0.000957
    16  O    0.000000   0.000000   0.000000   0.000113   0.003774  -0.000038
    17  C    0.000000   0.000000   0.000000   0.000019  -0.000360  -0.000006
    18  H    0.000000   0.000000   0.000000  -0.000001  -0.000220   0.000000
    19  H    0.000000   0.000000   0.000000   0.000000   0.000014   0.000000
    20  H    0.000000   0.000000   0.000000  -0.000005  -0.000193   0.000001
    21  C    0.002360   0.000066  -0.000011  -0.050214  -0.033501   0.000250
    22  H   -0.000107  -0.000005   0.000002   0.002122  -0.000071   0.000010
    23  C   -0.053562   0.000079   0.002032   0.532599  -0.040476   0.002587
    24  H   -0.001301   0.001301  -0.000013  -0.043464   0.002541  -0.000118
    25  C   -0.036222   0.003625  -0.002833  -0.003906   0.000902   0.000048
    26  O   -0.000540  -0.000080   0.000744   0.000010   0.000000  -0.000004
    27  N    0.005029  -0.000103   0.000347  -0.005548  -0.001415   0.000208
    28  H   -0.001565   0.000079   0.000068   0.009622   0.003293  -0.000020
    29  C   -0.000168   0.000003  -0.000012   0.000268   0.000086   0.000004
    30  H   -0.000011   0.000000   0.000005   0.000020   0.000013   0.000012
    31  H   -0.000001   0.000000  -0.000001  -0.000005   0.000001   0.000000
    32  H    0.000000   0.000000   0.000000  -0.000008   0.000003   0.000000
              13         14         15         16         17         18
     1  N    0.000000   0.000000   0.000000   0.000000   0.000000   0.000000
     2  H    0.000000   0.000000   0.000000   0.000000   0.000000   0.000000
     3  H    0.000000   0.000000   0.000000   0.000000   0.000000   0.000000
     4  H    0.000000   0.000000   0.000000   0.000000   0.000000   0.000000
     5  C   -0.000089   0.000001   0.000000   0.000000   0.000000   0.000000
     6  H   -0.000013   0.000000  -0.000001   0.000000   0.000000   0.000000
     7  C    0.003668  -0.000122   0.000227   0.000000   0.000000   0.000000
     8  H   -0.000037   0.000002   0.000018   0.000000   0.000000   0.000000
     9  H    0.000201  -0.000008  -0.000008   0.000000   0.000000   0.000000
    10  C   -0.053480   0.001897  -0.024167   0.000113   0.000019  -0.000001
    11  C    0.501795  -0.025957  -0.025248   0.003774  -0.000360  -0.000220
    12  H   -0.021383  -0.001300   0.000957  -0.000038  -0.000006   0.000000
    13  C    5.084536   0.379700   0.539771  -0.055731  -0.006892   0.000925
    14  H    0.379700   0.432454  -0.025546  -0.004216   0.002327   0.000081
    15  C    0.539771  -0.025546   4.335546   0.277380  -0.041059  -0.001714
    16  O   -0.055731  -0.004216   0.277380   8.387328   0.186672  -0.037590
    17  C   -0.006892   0.002327  -0.041059   0.186672   4.873210   0.390112
    18  H    0.000925   0.000081  -0.001714  -0.037590   0.390112   0.545245
    19  H    0.000259   0.000008   0.002066  -0.031026   0.405242  -0.026364
    20  H    0.001041   0.000046  -0.001619  -0.036937   0.391150  -0.040915
    21  C   -0.057841   0.002242   0.573359  -0.053500   0.002756  -0.000052
    22  H    0.004007  -0.000090  -0.024076   0.001145  -0.000101   0.000017
    23  C   -0.033009   0.000288  -0.040692   0.002337  -0.000099  -0.000002
    24  H    0.000075   0.000010   0.001937  -0.000054   0.000002   0.000000
    25  C    0.000048   0.000001   0.000004   0.000000   0.000000   0.000000
    26  O    0.000000   0.000000   0.000000   0.000000   0.000000   0.000000
    27  N   -0.000114  -0.000005   0.000020   0.000000   0.000000   0.000000
    28  H   -0.000074   0.000007  -0.000089   0.000000   0.000000   0.000000
    29  C   -0.000008   0.000000  -0.000003   0.000000   0.000000   0.000000
    30  H    0.000004   0.000000   0.000000   0.000000   0.000000   0.000000
    31  H    0.000000   0.000000   0.000000   0.000000   0.000000   0.000000
    32  H    0.000001   0.000000   0.000000   0.000000   0.000000   0.000000
              19         20         21         22         23         24
     1  N    0.000000   0.000000   0.000001   0.000000  -0.000014  -0.000048
     2  H    0.000000   0.000000   0.000000   0.000000   0.000025   0.000008
     3  H    0.000000   0.000000   0.000000   0.000000   0.000001   0.000002
     4  H    0.000000   0.000000   0.000000   0.000000  -0.000004  -0.000001
     5  C    0.000000   0.000000   0.000059   0.000000  -0.004351  -0.000226
     6  H    0.000000   0.000000  -0.000013   0.000004   0.001591   0.000987
     7  C    0.000000   0.000000   0.002360  -0.000107  -0.053562  -0.001301
     8  H    0.000000   0.000000   0.000066  -0.000005   0.000079   0.001301
     9  H    0.000000   0.000000  -0.000011   0.000002   0.002032  -0.000013
    10  C    0.000000  -0.000005  -0.050214   0.002122   0.532599  -0.043464
    11  C    0.000014  -0.000193  -0.033501  -0.000071  -0.040476   0.002541
    12  H    0.000000   0.000001   0.000250   0.000010   0.002587  -0.000118
    13  C    0.000259   0.001041  -0.057841   0.004007  -0.033009   0.000075
    14  H    0.000008   0.000046   0.002242  -0.000090   0.000288   0.000010
    15  C    0.002066  -0.001619   0.573359  -0.024076  -0.040692   0.001937
    16  O   -0.031026  -0.036937  -0.053500   0.001145   0.002337  -0.000054
    17  C    0.405242   0.391150   0.002756  -0.000101  -0.000099   0.000002
    18  H   -0.026364  -0.040915  -0.000052   0.000017  -0.000002   0.000000
    19  H    0.456801  -0.025256  -0.000011  -0.000021   0.000003   0.000000
    20  H   -0.025256   0.534948  -0.000007   0.000016   0.000002   0.000000
    21  C   -0.000011  -0.000007   4.944090   0.373995   0.556414  -0.019063
    22  H   -0.000021   0.000016   0.373995   0.423841  -0.027570  -0.001988
    23  C    0.000003   0.000002   0.556414  -0.027570   4.926740   0.381292
    24  H    0.000000   0.000000  -0.019063  -0.001988   0.381292   0.471888
    25  C    0.000000   0.000000  -0.000007   0.000000   0.000113   0.000071
    26  O    0.000000   0.000000   0.000000   0.000000  -0.000005   0.000000
    27  N    0.000000   0.000000   0.000004   0.000000  -0.000641  -0.000006
    28  H    0.000000   0.000000  -0.000017   0.000001   0.001914   0.000025
    29  C    0.000000   0.000000  -0.000002   0.000000   0.000015   0.000000
    30  H    0.000000   0.000000   0.000000   0.000000   0.000000   0.000000
    31  H    0.000000   0.000000   0.000000   0.000000   0.000000   0.000000
    32  H    0.000000   0.000000   0.000000   0.000000   0.000000   0.000000
              25         26         27         28         29         30
     1  N   -0.055510  -0.013878   0.002551   0.000083  -0.000073   0.000001
     2  H    0.003480   0.000998  -0.000008  -0.000003   0.000001   0.000000
     3  H   -0.000265   0.011728   0.000229  -0.000019  -0.000013  -0.000001
     4  H   -0.001121   0.007789   0.000222  -0.000006  -0.000004   0.000001
     5  C    0.339731  -0.095570  -0.126756  -0.000681   0.004010  -0.000037
     6  H   -0.027786   0.001032   0.003302   0.000551  -0.000084   0.000001
     7  C   -0.036222  -0.000540   0.005029  -0.001565  -0.000168  -0.000011
     8  H    0.003625  -0.000080  -0.000103   0.000079   0.000003   0.000000
     9  H   -0.002833   0.000744   0.000347   0.000068  -0.000012   0.000005
    10  C   -0.003906   0.000010  -0.005548   0.009622   0.000268   0.000020
    11  C    0.000902   0.000000  -0.001415   0.003293   0.000086   0.000013
    12  H    0.000048  -0.000004   0.000208  -0.000020   0.000004   0.000012
    13  C    0.000048   0.000000  -0.000114  -0.000074  -0.000008   0.000004
    14  H    0.000001   0.000000  -0.000005   0.000007   0.000000   0.000000
    15  C    0.000004   0.000000   0.000020  -0.000089  -0.000003   0.000000
    16  O    0.000000   0.000000   0.000000   0.000000   0.000000   0.000000
    17  C    0.000000   0.000000   0.000000   0.000000   0.000000   0.000000
    18  H    0.000000   0.000000   0.000000   0.000000   0.000000   0.000000
    19  H    0.000000   0.000000   0.000000   0.000000   0.000000   0.000000
    20  H    0.000000   0.000000   0.000000   0.000000   0.000000   0.000000
    21  C   -0.000007   0.000000   0.000004  -0.000017  -0.000002   0.000000
    22  H    0.000000   0.000000   0.000000   0.000001   0.000000   0.000000
    23  C    0.000113  -0.000005  -0.000641   0.001914   0.000015   0.000000
    24  H    0.000071   0.000000  -0.000006   0.000025   0.000000   0.000000
    25  C    4.091655   0.592857   0.349081  -0.021665  -0.033315  -0.003697
    26  O    0.592857   8.206516  -0.095603   0.001965   0.004795   0.000893
    27  N    0.349081  -0.095603   7.289980   0.314934   0.171782  -0.043150
    28  H   -0.021665   0.001965   0.314934   0.281886  -0.016008   0.001277
    29  C   -0.033315   0.004795   0.171782  -0.016008   4.957461   0.404836
    30  H   -0.003697   0.000893  -0.043150   0.001277   0.404836   0.489798
    31  H   -0.003550   0.002713  -0.036988   0.001937   0.402779  -0.028172
    32  H    0.004578   0.000254  -0.034535  -0.004208   0.397925  -0.027258
              31         32
     1  N   -0.000003   0.000000
     2  H    0.000000   0.000000
     3  H    0.000006   0.000000
     4  H   -0.000001   0.000000
     5  C    0.000038  -0.000020
     6  H   -0.000006  -0.000003
     7  C   -0.000001   0.000000
     8  H    0.000000   0.000000
     9  H   -0.000001   0.000000
    10  C   -0.000005  -0.000008
    11  C    0.000001   0.000003
    12  H    0.000000   0.000000
    13  C    0.000000   0.000001
    14  H    0.000000   0.000000
    15  C    0.000000   0.000000
    16  O    0.000000   0.000000
    17  C    0.000000   0.000000
    18  H    0.000000   0.000000
    19  H    0.000000   0.000000
    20  H    0.000000   0.000000
    21  C    0.000000   0.000000
    22  H    0.000000   0.000000
    23  C    0.000000   0.000000
    24  H    0.000000   0.000000
    25  C   -0.003550   0.004578
    26  O    0.002713   0.000254
    27  N   -0.036988  -0.034535
    28  H    0.001937  -0.004208
    29  C    0.402779   0.397925
    30  H   -0.028172  -0.027258
    31  H    0.458901  -0.021855
    32  H   -0.021855   0.479893
 Mulliken charges:
               1
     1  N   -0.845989
     2  H    0.456098
     3  H    0.476967
     4  H    0.472371
     5  C   -0.166356
     6  H    0.270743
     7  C   -0.360953
     8  H    0.213073
     9  H    0.223040
    10  C   -0.041893
    11  C   -0.205191
    12  H    0.222831
    13  C   -0.287360
    14  H    0.238180
    15  C    0.452938
    16  O   -0.639657
    17  C   -0.202973
    18  H    0.170476
    19  H    0.218288
    20  H    0.177728
    21  C   -0.241357
    22  H    0.248868
    23  C   -0.207606
    24  H    0.206139
    25  C    0.803683
    26  O   -0.626616
    27  N   -0.792815
    28  H    0.426712
    29  C   -0.294275
    30  H    0.205464
    31  H    0.224207
    32  H    0.205234
 Sum of Mulliken charges =   1.00000
 Mulliken charges with hydrogens summed into heavy atoms:
               1
     1  N    0.559447
     5  C    0.104387
     7  C    0.075160
    10  C   -0.041893
    11  C    0.017640
    13  C   -0.049180
    15  C    0.452938
    16  O   -0.639657
    17  C    0.363520
    21  C    0.007511
    23  C   -0.001467
    25  C    0.803683
    26  O   -0.626616
    27  N   -0.366103
    29  C    0.340631
 DipInt: DoE/N= T F RetVal/Mat= T F Init=T NMatP=  1 IDeriv=0 Min/MaxMlt=  0  4
 Entering OneElI...
 OneElI was handed  1073567387 working-precision words.
 Multipole integrals L=0 to 4 MinM= 0 MaxM= 0.
 Requested accuracy = 0.1000D-12
 PrtBox:  NBox=     1 Levels=  1 BoxLen=   35.86 SMaxX=       19.19
          Shift=           11.026259            4.852191            3.505466
 Box      1 Number                   0 centers from      1 to     94:
 ShPair: Thresh= 1.00D-13 NBox=     1 BxSize= 3.59D+01 RnKept= 1.96D+01
         NSMCal=                 4465 NSMKep=                3726
 PrsmSu:  NPrtUS=   1 ThrOK=F IAlg=1 NPAlg=1 LenDen=           0.
 Prism:   IPart=     0 DynPar=F LinDyn=F Incr=          37.
 PRISM was handed  1073255341 working-precision words and  3726 shell-pairs
 IPart=  0 NShTot=        3726 NBatch=          66 AvBLen=        56.5
 PrSmSu:  NxtVal=             38.
 Electronic moments (au):
       -112.00000000          3.07632808         -1.63571815         -0.10348559
      -3158.44229601       -793.08326022       -263.21558960        -22.68747115
         -5.22498961          1.58035162       4972.43543785      -1112.14960900
       -105.52715954      -1714.85728232      -1216.80517585        169.97100536
        322.56511397        102.71209942        321.65087953        505.54734245
    -170113.87385947     -16276.24512895      -1959.60749681      13568.54604544
       -856.83698074      -4229.29956897       1083.01200219         62.58105777
       -201.88587516     -17062.77892525      -5157.13228383      -1705.98888898
      -1047.04918133        452.01707229       -275.31136151
 Electronic spatial extent (au):  <R**2>=           4214.7411
 DipInt: DoE/N= F T RetVal/Mat= T F Init=T NMatP=  1 IDeriv=0 Min/MaxMlt=  0  4
 Nuclear    moments (au):
        113.00000000          0.00000000          0.00000000          0.00000000
       3129.28063319        744.09893381        202.14280820          0.00000000
          0.00000000          0.00000000      -4901.83618026       1114.48500631
        107.47973371       1795.85990473       1121.60708491       -164.51782891
       -301.72294107       -107.71898934       -337.47123155       -521.85908480
     162106.88045506      13967.37199707       1089.84542324     -15084.26444687
        523.07784772       4016.60956195      -1084.33296327        -19.94632469
        240.55606740      15373.88583174       3365.55035059       1141.99897476
       1066.41835604       -461.73771910        227.05274325
 Total      moments (au):
          1.00000000          3.07632808         -1.63571815         -0.10348559
        -29.16166281        -48.98432641        -61.07278140        -22.68747115
         -5.22498961          1.58035162         70.59925759          2.33539732
          1.95257417         81.00262242        -95.19809094          5.45317645
         20.84217290         -5.00688992        -15.82035202        -16.31174235
      -8006.99340442      -2308.87313187       -869.76207357      -1515.71840143
       -333.75913303       -212.69000702         -1.32096108         42.63473308
         38.67019224      -1688.89309351      -1791.58193324       -563.98991421
         19.36917471         -9.72064681        -48.25861826
 Traceless Quadrup. (au):
         17.24459406         -2.57806954        -14.66652453        -22.68747115
         -5.22498961          1.58035162
 Charge=              1.0000 electrons
 Dipole moment (field-independent basis, Debye):
    X=              7.8192    Y=             -4.1576    Z=             -0.2630  Tot=              8.8598
 Quadrupole moment (field-independent basis, Debye-Ang):
   XX=            -39.2234   YY=            -65.8856   ZZ=            -82.1450
   XY=            -30.5154   XZ=             -7.0278   YZ=              2.1256
 Traceless Quadrupole moment (field-independent basis, Debye-Ang):
   XX=             23.1946   YY=             -3.4676   ZZ=            -19.7270
   XY=            -30.5154   XZ=             -7.0278   YZ=              2.1256
 Octapole moment (field-independent basis, Debye-Ang**2):
  XXX=             50.2498  YYY=              1.6622  ZZZ=              1.3898  XYY=             57.6545
  XXY=            -67.7583  XXZ=              3.8814  XZZ=             14.8347  YZZ=             -3.5637
  YYZ=            -11.2603  XYZ=            -11.6101
 Hexadecapole moment (field-independent basis, Debye-Ang**3):
 XXXX=          -3015.8175 YYYY=           -869.6323 ZZZZ=           -327.5941 XXXY=           -570.8922
 XXXZ=           -125.7097 YYYX=            -80.1093 YYYZ=             -0.4975 ZZZX=             16.0583
 ZZZY=             14.5650 XXYY=           -636.1181 XXZZ=           -674.7956 YYZZ=           -212.4256
 XXYZ=              7.2954 YYXZ=             -3.6613 ZZXY=            -18.1765
 N-N= 1.008919001127D+03 E-N=-3.603672215652D+03  KE= 6.839424144092D+02
 Entering OneElI...
 OneElI was handed  1073599998 working-precision words.
 Calculate electrostatic properties
    NBasis =   259  MinDer = 0  MaxDer = 0
    NGrid  =    32  NMatD  =   1
 Requested accuracy = 0.1000D-12
 PrtBox:  NBox=     1 Levels=  1 BoxLen=   29.89 SMaxX=       19.19
          Shift=           11.026259            4.852191            3.505466
 Box      1 Number                   0 centers from      1 to     94:
 ShPair: Thresh= 1.00D-13 NBox=     1 BxSize= 2.99D+01 RnKept= 1.73D+01
         NSMCal=                 4465 NSMKep=                3377
 PrsmSu:  NPrtUS=   8 ThrOK=T IAlg=1 NPAlg=1 LenDen=           0.
 Prism:   IPart=     0 DynPar=F LinDyn=F Incr=         135.
 PRISM was handed   134077319 working-precision words and  3377 shell-pairs
 PRISM was handed   134077319 working-precision words and  3377 shell-pairs
 PRISM was handed   134077319 working-precision words and  3377 shell-pairs
 PRISM was handed   134077319 working-precision words and  3377 shell-pairs
 PRISM was handed   134077319 working-precision words and  3377 shell-pairs
 PRISM was handed   134077319 working-precision words and  3377 shell-pairs
 PRISM was handed   134077319 working-precision words and  3377 shell-pairs
 PRISM was handed   134077319 working-precision words and  3377 shell-pairs
 IPart=  5 NShTot=       13184 NBatch=         412 AvBLen=        32.0
 IPart=  0 NShTot=       14144 NBatch=         442 AvBLen=        32.0
 IPart=  3 NShTot=       13536 NBatch=         423 AvBLen=        32.0
 IPart=  4 NShTot=       13376 NBatch=         418 AvBLen=        32.0
 IPart=  6 NShTot=       13120 NBatch=         410 AvBLen=        32.0
 IPart=  2 NShTot=       13760 NBatch=         430 AvBLen=        32.0
 IPart=  1 NShTot=       14016 NBatch=         438 AvBLen=        32.0
 IPart=  7 NShTot=       12928 NBatch=         404 AvBLen=        32.0
 PrSmSu:  NxtVal=           1081.
 --------------------------------------------------------
       Center         ----      EFG at Nuclei      ----
                      3XX-RR        3YY-RR        3ZZ-RR
 --------------------------------------------------------
     1   Atom        0.020621     -0.032505      0.011884
     2   Atom        0.185151     -0.349169      0.164018
     3   Atom       -0.102148      0.105762     -0.003613
     4   Atom        0.139753      0.185461     -0.325213
     5   Atom       -0.303790      0.055051      0.248739
     6   Atom        0.112642      0.130514     -0.243156
     7   Atom       -0.015454      0.038112     -0.022658
     8   Atom        0.142097     -0.298038      0.155942
     9   Atom        0.113275      0.115664     -0.228939
    10   Atom       -0.039460     -0.025456      0.064916
    11   Atom        0.143730     -0.135741     -0.007989
    12   Atom        0.055900      0.096532     -0.152432
    13   Atom        0.081296     -0.086016      0.004720
    14   Atom        0.048959     -0.027882     -0.021076
    15   Atom       -0.103530     -0.053904      0.157434
    16   Atom       -1.238868      0.622490      0.616378
    17   Atom       -0.001668     -0.032678      0.034346
    18   Atom        0.073424     -0.231413      0.157989
    19   Atom       -0.217357      0.158273      0.059084
    20   Atom        0.147061      0.089344     -0.236405
    21   Atom        0.107647     -0.110568      0.002921
    22   Atom        0.046769      0.096352     -0.143121
    23   Atom        0.141820     -0.144123      0.002303
    24   Atom        0.049331     -0.043992     -0.005338
    25   Atom        0.221092      0.195549     -0.416641
    26   Atom       -0.783826      1.470370     -0.686544
    27   Atom       -0.301749     -0.458697      0.760446
    28   Atom       -0.323982      0.105824      0.218158
    29   Atom        0.191260     -0.370035      0.178775
    30   Atom        0.165400      0.101228     -0.266628
    31   Atom       -0.221046      0.117643      0.103403
    32   Atom       -0.071957      0.041130      0.030828
 --------------------------------------------------------
                        XY            XZ            YZ
 --------------------------------------------------------
     1   Atom        0.012718     -0.019409     -0.019006
     2   Atom       -0.048126     -0.011334     -0.119453
     3   Atom       -0.152165      0.228338      0.130385
     4   Atom       -0.015214     -0.149013     -0.064373
     5   Atom        0.352389     -0.124412      0.063399
     6   Atom       -0.014508     -0.115959     -0.096192
     7   Atom       -0.056832      0.096364      0.072838
     8   Atom        0.030592      0.007622     -0.004256
     9   Atom       -0.037572     -0.104472     -0.128930
    10   Atom       -0.031262      0.012511      0.155930
    11   Atom       -0.160238      0.093017      0.222443
    12   Atom       -0.074130     -0.176695     -0.155150
    13   Atom       -0.095716      0.063323      0.137233
    14   Atom        0.150912      0.129612     -0.202918
    15   Atom       -0.082176      0.033317      0.342216
    16   Atom        1.206886      0.050568     -0.601732
    17   Atom        0.234027      0.225908     -0.209709
    18   Atom       -0.164715     -0.001277     -0.028071
    19   Atom        0.029375     -0.187753      0.001428
    20   Atom       -0.008477      0.054438      0.154333
    21   Atom       -0.106477      0.093734      0.162508
    22   Atom       -0.079935     -0.184738     -0.155468
    23   Atom       -0.133564      0.129183      0.192238
    24   Atom        0.150928      0.124960     -0.195912
    25   Atom        0.017821      0.249444      0.012008
    26   Atom       -0.451380     -0.055787     -0.126733
    27   Atom        0.051387     -0.369944      0.046917
    28   Atom       -0.174892     -0.148172     -0.042973
    29   Atom       -0.071152     -0.011860     -0.026138
    30   Atom        0.004176      0.026233     -0.130535
    31   Atom       -0.097281      0.160800      0.035072
    32   Atom        0.148489     -0.184732      0.115890
 --------------------------------------------------------


 ---------------------------------------------------------------------------------
              Nuclear Quadrupole Coupling Constant in Principal Axis System
 ---------------------------------------------------------------------------------

       Atom             a.u.   MegaHertz   Gauss  10(-4) cm-1        Axes

              Baa    -0.0401     0.192     0.069     0.064 -0.0994  0.9459  0.3090
     1 N(14)  Bbb    -0.0025     0.012     0.004     0.004  0.6846 -0.1603  0.7111
              Bcc     0.0426    -0.204    -0.073    -0.068  0.7221  0.2822 -0.6316
 
              Baa    -0.5050     2.425     0.865     0.809 -0.5544  0.8098 -0.1921
    27 N(14)  Bbb    -0.3722     1.788     0.638     0.596  0.7769  0.5863  0.2295
              Bcc     0.8772    -4.213    -1.503    -1.405 -0.2984  0.0220  0.9542
 

 ---------------------------------------------------------------------------------

 No NMR shielding tensors so no spin-rotation constants.
 Leave Link  601 at Wed May 18 23:25:16 2016, MaxMem=  1073741824 cpu:         2.2
 FitSet:  NAtFit=    32 NAtPot=    32 NAtFrz=     0 MDM=    36 TotChg=   1.00000
 Breneman (CHELPG) radii used.
 Atom Element Radius
    1     7    1.70
    2     1    1.45
    3     1    1.45
    4     1    1.45
    5     6    1.50
    6     1    1.45
    7     6    1.50
    8     1    1.45
    9     1    1.45
   10     6    1.50
   11     6    1.50
   12     1    1.45
   13     6    1.50
   14     1    1.45
   15     6    1.50
   16     8    1.70
   17     6    1.50
   18     1    1.45
   19     1    1.45
   20     1    1.45
   21     6    1.50
   22     1    1.45
   23     6    1.50
   24     1    1.45
   25     6    1.50
   26     8    1.70
   27     7    1.70
   28     1    1.45
   29     6    1.50
   30     1    1.45
   31     1    1.45
   32     1    1.45
 Generate Potential Derived Charges using the Breneman model, NDens= 1.
 Grid spacing= 0.300 Box extension= 2.800
 NStep X,Y,Z=   54     40     33   Total possible points=       71280
 Number of Points to Fit=   18553
 Approximate Molecular Volume= 1321.05 A**3

 **********************************************************************

            Electrostatic Properties Using The SCF Density

 **********************************************************************

       Atomic Center    1 is at   3.599150 -1.586965 -0.009069
       Atomic Center    2 is at   3.513532 -2.567669 -0.230091
       Atomic Center    3 is at   4.321710 -1.180147 -0.586531
       Atomic Center    4 is at   3.889233 -1.457044  0.948826
       Atomic Center    5 is at   2.261354 -0.875126 -0.283267
       Atomic Center    6 is at   1.959329 -1.101291 -1.295839
       Atomic Center    7 is at   1.220513 -1.406910  0.721115
       Atomic Center    8 is at   1.279876 -2.492898  0.719802
       Atomic Center    9 is at   1.492975 -1.076769  1.718423
       Atomic Center   10 is at  -0.197151 -0.981696  0.399847
       Atomic Center   11 is at  -0.881837 -0.093359  1.210042
       Atomic Center   12 is at  -0.404248  0.316258  2.083199
       Atomic Center   13 is at  -2.189467  0.286210  0.932596
       Atomic Center   14 is at  -2.684345  0.971912  1.591465
       Atomic Center   15 is at  -2.835039 -0.233977 -0.179840
       Atomic Center   16 is at  -4.083767  0.057454 -0.545269
       Atomic Center   17 is at  -4.877826  0.911709  0.242926
       Atomic Center   18 is at  -4.446557  1.904526  0.298318
       Atomic Center   19 is at  -5.834845  0.964801 -0.250234
       Atomic Center   20 is at  -5.008204  0.510964  1.241158
       Atomic Center   21 is at  -2.155624 -1.135944 -1.004922
       Atomic Center   22 is at  -2.671516 -1.540323 -1.855013
       Atomic Center   23 is at  -0.865052 -1.503656 -0.712717
       Atomic Center   24 is at  -0.376965 -2.221253 -1.351557
       Atomic Center   25 is at   2.618632  0.614007 -0.146204
       Atomic Center   26 is at   3.727223  0.884703  0.244848
       Atomic Center   27 is at   1.691183  1.491785 -0.497276
       Atomic Center   28 is at   0.776211  1.170475 -0.722687
       Atomic Center   29 is at   1.918055  2.929205 -0.388302
       Atomic Center   30 is at   1.860706  3.256614  0.641557
       Atomic Center   31 is at   2.892683  3.173340 -0.781875
       Atomic Center   32 is at   1.161094  3.434733 -0.968786
      ESP Fit Center   33 is at  -8.406567 -0.016468 -0.485907
      ESP Fit Center   34 is at  -8.406567 -0.016468 -0.185907
      ESP Fit Center   35 is at  -8.406567 -0.016468  0.114093
      ESP Fit Center   36 is at  -8.406567  0.283532 -1.085907
      ESP Fit Center   37 is at  -8.406567  0.283532 -0.785907
      ESP Fit Center   38 is at  -8.406567  0.283532 -0.485907
      ESP Fit Center   39 is at  -8.406567  0.283532 -0.185907
      ESP Fit Center   40 is at  -8.406567  0.283532  0.114093
      ESP Fit Center   41 is at  -8.406567  0.283532  0.414093
      ESP Fit Center   42 is at  -8.406567  0.583532 -1.085907
      ESP Fit Center   43 is at  -8.406567  0.583532 -0.785907
      ESP Fit Center   44 is at  -8.406567  0.583532 -0.485907
      ESP Fit Center   45 is at  -8.406567  0.583532 -0.185907
      ESP Fit Center   46 is at  -8.406567  0.583532  0.114093
      ESP Fit Center   47 is at  -8.406567  0.583532  0.414093
      ESP Fit Center   48 is at  -8.406567  0.583532  0.714093
      ESP Fit Center   49 is at  -8.406567  0.883532 -1.085907
      ESP Fit Center   50 is at  -8.406567  0.883532 -0.785907
      ESP Fit Center   51 is at  -8.406567  0.883532 -0.485907
      ESP Fit Center   52 is at  -8.406567  0.883532 -0.185907
      ESP Fit Center   53 is at  -8.406567  0.883532  0.114093
      ESP Fit Center   54 is at  -8.406567  0.883532  0.414093
      ESP Fit Center   55 is at  -8.406567  0.883532  0.714093
      ESP Fit Center   56 is at  -8.406567  1.183532 -1.085907
      ESP Fit Center   57 is at  -8.406567  1.183532 -0.785907
      ESP Fit Center   58 is at  -8.406567  1.183532 -0.485907
      ESP Fit Center   59 is at  -8.406567  1.183532 -0.185907
      ESP Fit Center   60 is at  -8.406567  1.183532  0.114093
      ESP Fit Center   61 is at  -8.406567  1.183532  0.414093
      ESP Fit Center   62 is at  -8.406567  1.183532  0.714093
      ESP Fit Center   63 is at  -8.406567  1.483532 -1.085907
      ESP Fit Center   64 is at  -8.406567  1.483532 -0.785907
      ESP Fit Center   65 is at  -8.406567  1.483532 -0.485907
      ESP Fit Center   66 is at  -8.406567  1.483532 -0.185907
      ESP Fit Center   67 is at  -8.406567  1.483532  0.114093
      ESP Fit Center   68 is at  -8.406567  1.483532  0.414093
      ESP Fit Center   69 is at  -8.406567  1.483532  0.714093
      ESP Fit Center   70 is at  -8.406567  1.783532 -0.785907
      ESP Fit Center   71 is at  -8.406567  1.783532 -0.485907
      ESP Fit Center   72 is at  -8.406567  1.783532 -0.185907
      ESP Fit Center   73 is at  -8.406567  1.783532  0.114093
      ESP Fit Center   74 is at  -8.406567  1.783532  0.414093
      ESP Fit Center   75 is at  -8.106567 -0.616468 -0.485907
      ESP Fit Center   76 is at  -8.106567 -0.616468 -0.185907
      ESP Fit Center   77 is at  -8.106567 -0.616468  0.114093
      ESP Fit Center   78 is at  -8.106567 -0.316468 -1.085907
      ESP Fit Center   79 is at  -8.106567 -0.316468 -0.785907
      ESP Fit Center   80 is at  -8.106567 -0.316468 -0.485907
      ESP Fit Center   81 is at  -8.106567 -0.316468 -0.185907
      ESP Fit Center   82 is at  -8.106567 -0.316468  0.114093
      ESP Fit Center   83 is at  -8.106567 -0.316468  0.414093
      ESP Fit Center   84 is at  -8.106567 -0.316468  0.714093
      ESP Fit Center   85 is at  -8.106567 -0.016468 -1.385907
      ESP Fit Center   86 is at  -8.106567 -0.016468 -1.085907
      ESP Fit Center   87 is at  -8.106567 -0.016468 -0.785907
      ESP Fit Center   88 is at  -8.106567 -0.016468 -0.485907
      ESP Fit Center   89 is at  -8.106567 -0.016468 -0.185907
      ESP Fit Center   90 is at  -8.106567 -0.016468  0.114093
      ESP Fit Center   91 is at  -8.106567 -0.016468  0.414093
      ESP Fit Center   92 is at  -8.106567 -0.016468  0.714093
      ESP Fit Center   93 is at  -8.106567 -0.016468  1.014093
      ESP Fit Center   94 is at  -8.106567  0.283532 -1.685907
      ESP Fit Center   95 is at  -8.106567  0.283532 -1.385907
      ESP Fit Center   96 is at  -8.106567  0.283532 -1.085907
      ESP Fit Center   97 is at  -8.106567  0.283532 -0.785907
      ESP Fit Center   98 is at  -8.106567  0.283532 -0.485907
      ESP Fit Center   99 is at  -8.106567  0.283532 -0.185907
      ESP Fit Center  100 is at  -8.106567  0.283532  0.114093
      ESP Fit Center  101 is at  -8.106567  0.283532  0.414093
      ESP Fit Center  102 is at  -8.106567  0.283532  0.714093
      ESP Fit Center  103 is at  -8.106567  0.283532  1.014093
      ESP Fit Center  104 is at  -8.106567  0.583532 -1.685907
      ESP Fit Center  105 is at  -8.106567  0.583532 -1.385907
      ESP Fit Center  106 is at  -8.106567  0.583532 -1.085907
      ESP Fit Center  107 is at  -8.106567  0.583532 -0.785907
      ESP Fit Center  108 is at  -8.106567  0.583532 -0.485907
      ESP Fit Center  109 is at  -8.106567  0.583532 -0.185907
      ESP Fit Center  110 is at  -8.106567  0.583532  0.114093
      ESP Fit Center  111 is at  -8.106567  0.583532  0.414093
      ESP Fit Center  112 is at  -8.106567  0.583532  0.714093
      ESP Fit Center  113 is at  -8.106567  0.583532  1.014093
      ESP Fit Center  114 is at  -8.106567  0.583532  1.314093
      ESP Fit Center  115 is at  -8.106567  0.883532 -1.685907
      ESP Fit Center  116 is at  -8.106567  0.883532 -1.385907
      ESP Fit Center  117 is at  -8.106567  0.883532 -1.085907
      ESP Fit Center  118 is at  -8.106567  0.883532 -0.785907
      ESP Fit Center  119 is at  -8.106567  0.883532 -0.485907
      ESP Fit Center  120 is at  -8.106567  0.883532 -0.185907
      ESP Fit Center  121 is at  -8.106567  0.883532  0.114093
      ESP Fit Center  122 is at  -8.106567  0.883532  0.414093
      ESP Fit Center  123 is at  -8.106567  0.883532  0.714093
      ESP Fit Center  124 is at  -8.106567  0.883532  1.014093
      ESP Fit Center  125 is at  -8.106567  0.883532  1.314093
      ESP Fit Center  126 is at  -8.106567  1.183532 -1.685907
      ESP Fit Center  127 is at  -8.106567  1.183532 -1.385907
      ESP Fit Center  128 is at  -8.106567  1.183532 -1.085907
      ESP Fit Center  129 is at  -8.106567  1.183532 -0.785907
      ESP Fit Center  130 is at  -8.106567  1.183532 -0.485907
      ESP Fit Center  131 is at  -8.106567  1.183532 -0.185907
      ESP Fit Center  132 is at  -8.106567  1.183532  0.114093
      ESP Fit Center  133 is at  -8.106567  1.183532  0.414093
      ESP Fit Center  134 is at  -8.106567  1.183532  0.714093
      ESP Fit Center  135 is at  -8.106567  1.183532  1.014093
      ESP Fit Center  136 is at  -8.106567  1.183532  1.314093
      ESP Fit Center  137 is at  -8.106567  1.483532 -1.685907
      ESP Fit Center  138 is at  -8.106567  1.483532 -1.385907
      ESP Fit Center  139 is at  -8.106567  1.483532 -1.085907
      ESP Fit Center  140 is at  -8.106567  1.483532 -0.785907
      ESP Fit Center  141 is at  -8.106567  1.483532 -0.485907
      ESP Fit Center  142 is at  -8.106567  1.483532 -0.185907
      ESP Fit Center  143 is at  -8.106567  1.483532  0.114093
      ESP Fit Center  144 is at  -8.106567  1.483532  0.414093
      ESP Fit Center  145 is at  -8.106567  1.483532  0.714093
      ESP Fit Center  146 is at  -8.106567  1.483532  1.014093
      ESP Fit Center  147 is at  -8.106567  1.783532 -1.385907
      ESP Fit Center  148 is at  -8.106567  1.783532 -1.085907
      ESP Fit Center  149 is at  -8.106567  1.783532 -0.785907
      ESP Fit Center  150 is at  -8.106567  1.783532 -0.485907
      ESP Fit Center  151 is at  -8.106567  1.783532 -0.185907
      ESP Fit Center  152 is at  -8.106567  1.783532  0.114093
      ESP Fit Center  153 is at  -8.106567  1.783532  0.414093
      ESP Fit Center  154 is at  -8.106567  1.783532  0.714093
      ESP Fit Center  155 is at  -8.106567  1.783532  1.014093
      ESP Fit Center  156 is at  -8.106567  2.083532 -1.385907
      ESP Fit Center  157 is at  -8.106567  2.083532 -1.085907
      ESP Fit Center  158 is at  -8.106567  2.083532 -0.785907
      ESP Fit Center  159 is at  -8.106567  2.083532 -0.485907
      ESP Fit Center  160 is at  -8.106567  2.083532 -0.185907
      ESP Fit Center  161 is at  -8.106567  2.083532  0.114093
      ESP Fit Center  162 is at  -8.106567  2.083532  0.414093
      ESP Fit Center  163 is at  -8.106567  2.083532  0.714093
      ESP Fit Center  164 is at  -8.106567  2.383532 -0.785907
      ESP Fit Center  165 is at  -8.106567  2.383532 -0.485907
      ESP Fit Center  166 is at  -8.106567  2.383532 -0.185907
      ESP Fit Center  167 is at  -8.106567  2.383532  0.114093
      ESP Fit Center  168 is at  -8.106567  2.383532  0.414093
      ESP Fit Center  169 is at  -7.806567 -0.916468 -0.785907
      ESP Fit Center  170 is at  -7.806567 -0.916468 -0.485907
      ESP Fit Center  171 is at  -7.806567 -0.916468 -0.185907
      ESP Fit Center  172 is at  -7.806567 -0.916468  0.114093
      ESP Fit Center  173 is at  -7.806567 -0.616468 -1.385907
      ESP Fit Center  174 is at  -7.806567 -0.616468 -1.085907
      ESP Fit Center  175 is at  -7.806567 -0.616468 -0.785907
      ESP Fit Center  176 is at  -7.806567 -0.616468 -0.485907
      ESP Fit Center  177 is at  -7.806567 -0.616468 -0.185907
      ESP Fit Center  178 is at  -7.806567 -0.616468  0.114093
      ESP Fit Center  179 is at  -7.806567 -0.616468  0.414093
      ESP Fit Center  180 is at  -7.806567 -0.616468  0.714093
      ESP Fit Center  181 is at  -7.806567 -0.316468 -1.685907
      ESP Fit Center  182 is at  -7.806567 -0.316468 -1.385907
      ESP Fit Center  183 is at  -7.806567 -0.316468 -1.085907
      ESP Fit Center  184 is at  -7.806567 -0.316468 -0.785907
      ESP Fit Center  185 is at  -7.806567 -0.316468 -0.485907
      ESP Fit Center  186 is at  -7.806567 -0.316468 -0.185907
      ESP Fit Center  187 is at  -7.806567 -0.316468  0.114093
      ESP Fit Center  188 is at  -7.806567 -0.316468  0.414093
      ESP Fit Center  189 is at  -7.806567 -0.316468  0.714093
      ESP Fit Center  190 is at  -7.806567 -0.316468  1.014093
      ESP Fit Center  191 is at  -7.806567 -0.016468 -1.685907
      ESP Fit Center  192 is at  -7.806567 -0.016468 -1.385907
      ESP Fit Center  193 is at  -7.806567 -0.016468 -1.085907
      ESP Fit Center  194 is at  -7.806567 -0.016468 -0.785907
      ESP Fit Center  195 is at  -7.806567 -0.016468 -0.485907
      ESP Fit Center  196 is at  -7.806567 -0.016468 -0.185907
      ESP Fit Center  197 is at  -7.806567 -0.016468  0.114093
      ESP Fit Center  198 is at  -7.806567 -0.016468  0.414093
      ESP Fit Center  199 is at  -7.806567 -0.016468  0.714093
      ESP Fit Center  200 is at  -7.806567 -0.016468  1.014093
      ESP Fit Center  201 is at  -7.806567 -0.016468  1.314093
      ESP Fit Center  202 is at  -7.806567  0.283532 -1.985907
      ESP Fit Center  203 is at  -7.806567  0.283532 -1.685907
      ESP Fit Center  204 is at  -7.806567  0.283532 -1.385907
      ESP Fit Center  205 is at  -7.806567  0.283532 -1.085907
      ESP Fit Center  206 is at  -7.806567  0.283532 -0.785907
      ESP Fit Center  207 is at  -7.806567  0.283532 -0.485907
      ESP Fit Center  208 is at  -7.806567  0.283532 -0.185907
      ESP Fit Center  209 is at  -7.806567  0.283532  0.114093
      ESP Fit Center  210 is at  -7.806567  0.283532  0.414093
      ESP Fit Center  211 is at  -7.806567  0.283532  0.714093
      ESP Fit Center  212 is at  -7.806567  0.283532  1.014093
      ESP Fit Center  213 is at  -7.806567  0.283532  1.314093
      ESP Fit Center  214 is at  -7.806567  0.283532  1.614093
      ESP Fit Center  215 is at  -7.806567  0.583532 -1.985907
      ESP Fit Center  216 is at  -7.806567  0.583532 -1.685907
      ESP Fit Center  217 is at  -7.806567  0.583532 -1.385907
      ESP Fit Center  218 is at  -7.806567  0.583532 -1.085907
      ESP Fit Center  219 is at  -7.806567  0.583532 -0.785907
      ESP Fit Center  220 is at  -7.806567  0.583532 -0.485907
      ESP Fit Center  221 is at  -7.806567  0.583532 -0.185907
      ESP Fit Center  222 is at  -7.806567  0.583532  0.114093
      ESP Fit Center  223 is at  -7.806567  0.583532  0.414093
      ESP Fit Center  224 is at  -7.806567  0.583532  0.714093
      ESP Fit Center  225 is at  -7.806567  0.583532  1.014093
      ESP Fit Center  226 is at  -7.806567  0.583532  1.314093
      ESP Fit Center  227 is at  -7.806567  0.583532  1.614093
      ESP Fit Center  228 is at  -7.806567  0.883532 -1.985907
      ESP Fit Center  229 is at  -7.806567  0.883532 -1.685907
      ESP Fit Center  230 is at  -7.806567  0.883532 -1.385907
      ESP Fit Center  231 is at  -7.806567  0.883532 -1.085907
      ESP Fit Center  232 is at  -7.806567  0.883532 -0.785907
      ESP Fit Center  233 is at  -7.806567  0.883532 -0.485907
      ESP Fit Center  234 is at  -7.806567  0.883532 -0.185907
      ESP Fit Center  235 is at  -7.806567  0.883532  0.114093
      ESP Fit Center  236 is at  -7.806567  0.883532  0.414093
      ESP Fit Center  237 is at  -7.806567  0.883532  0.714093
      ESP Fit Center  238 is at  -7.806567  0.883532  1.014093
      ESP Fit Center  239 is at  -7.806567  0.883532  1.314093
      ESP Fit Center  240 is at  -7.806567  0.883532  1.614093
      ESP Fit Center  241 is at  -7.806567  1.183532 -1.985907
      ESP Fit Center  242 is at  -7.806567  1.183532 -1.685907
      ESP Fit Center  243 is at  -7.806567  1.183532 -1.385907
      ESP Fit Center  244 is at  -7.806567  1.183532 -1.085907
      ESP Fit Center  245 is at  -7.806567  1.183532 -0.785907
      ESP Fit Center  246 is at  -7.806567  1.183532 -0.485907
      ESP Fit Center  247 is at  -7.806567  1.183532 -0.185907
      ESP Fit Center  248 is at  -7.806567  1.183532  0.114093
      ESP Fit Center  249 is at  -7.806567  1.183532  0.414093
      ESP Fit Center  250 is at  -7.806567  1.183532  0.714093
      ESP Fit Center  251 is at  -7.806567  1.183532  1.014093
      ESP Fit Center  252 is at  -7.806567  1.183532  1.314093
      ESP Fit Center  253 is at  -7.806567  1.183532  1.614093
      ESP Fit Center  254 is at  -7.806567  1.483532 -1.985907
      ESP Fit Center  255 is at  -7.806567  1.483532 -1.685907
      ESP Fit Center  256 is at  -7.806567  1.483532 -1.385907
      ESP Fit Center  257 is at  -7.806567  1.483532 -1.085907
      ESP Fit Center  258 is at  -7.806567  1.483532 -0.785907
      ESP Fit Center  259 is at  -7.806567  1.483532 -0.485907
      ESP Fit Center  260 is at  -7.806567  1.483532 -0.185907
      ESP Fit Center  261 is at  -7.806567  1.483532  0.114093
      ESP Fit Center  262 is at  -7.806567  1.483532  0.414093
      ESP Fit Center  263 is at  -7.806567  1.483532  0.714093
      ESP Fit Center  264 is at  -7.806567  1.483532  1.014093
      ESP Fit Center  265 is at  -7.806567  1.483532  1.314093
      ESP Fit Center  266 is at  -7.806567  1.483532  1.614093
      ESP Fit Center  267 is at  -7.806567  1.783532 -1.985907
      ESP Fit Center  268 is at  -7.806567  1.783532 -1.685907
      ESP Fit Center  269 is at  -7.806567  1.783532 -1.385907
      ESP Fit Center  270 is at  -7.806567  1.783532 -1.085907
      ESP Fit Center  271 is at  -7.806567  1.783532 -0.785907
      ESP Fit Center  272 is at  -7.806567  1.783532 -0.485907
      ESP Fit Center  273 is at  -7.806567  1.783532 -0.185907
      ESP Fit Center  274 is at  -7.806567  1.783532  0.114093
      ESP Fit Center  275 is at  -7.806567  1.783532  0.414093
      ESP Fit Center  276 is at  -7.806567  1.783532  0.714093
      ESP Fit Center  277 is at  -7.806567  1.783532  1.014093
      ESP Fit Center  278 is at  -7.806567  1.783532  1.314093
      ESP Fit Center  279 is at  -7.806567  2.083532 -1.685907
      ESP Fit Center  280 is at  -7.806567  2.083532 -1.385907
      ESP Fit Center  281 is at  -7.806567  2.083532 -1.085907
      ESP Fit Center  282 is at  -7.806567  2.083532 -0.785907
      ESP Fit Center  283 is at  -7.806567  2.083532 -0.485907
      ESP Fit Center  284 is at  -7.806567  2.083532 -0.185907
      ESP Fit Center  285 is at  -7.806567  2.083532  0.114093
      ESP Fit Center  286 is at  -7.806567  2.083532  0.414093
      ESP Fit Center  287 is at  -7.806567  2.083532  0.714093
      ESP Fit Center  288 is at  -7.806567  2.083532  1.014093
      ESP Fit Center  289 is at  -7.806567  2.083532  1.314093
      ESP Fit Center  290 is at  -7.806567  2.383532 -1.385907
      ESP Fit Center  291 is at  -7.806567  2.383532 -1.085907
      ESP Fit Center  292 is at  -7.806567  2.383532 -0.785907
      ESP Fit Center  293 is at  -7.806567  2.383532 -0.485907
      ESP Fit Center  294 is at  -7.806567  2.383532 -0.185907
      ESP Fit Center  295 is at  -7.806567  2.383532  0.114093
      ESP Fit Center  296 is at  -7.806567  2.383532  0.414093
      ESP Fit Center  297 is at  -7.806567  2.383532  0.714093
      ESP Fit Center  298 is at  -7.806567  2.383532  1.014093
      ESP Fit Center  299 is at  -7.806567  2.683532 -1.085907
      ESP Fit Center  300 is at  -7.806567  2.683532 -0.785907
      ESP Fit Center  301 is at  -7.806567  2.683532 -0.485907
      ESP Fit Center  302 is at  -7.806567  2.683532 -0.185907
      ESP Fit Center  303 is at  -7.806567  2.683532  0.114093
      ESP Fit Center  304 is at  -7.806567  2.683532  0.414093
      ESP Fit Center  305 is at  -7.806567  2.683532  0.714093
      ESP Fit Center  306 is at  -7.506567 -1.216468 -0.785907
      ESP Fit Center  307 is at  -7.506567 -1.216468 -0.485907
      ESP Fit Center  308 is at  -7.506567 -1.216468 -0.185907
      ESP Fit Center  309 is at  -7.506567 -1.216468  0.114093
      ESP Fit Center  310 is at  -7.506567 -0.916468 -1.385907
      ESP Fit Center  311 is at  -7.506567 -0.916468 -1.085907
      ESP Fit Center  312 is at  -7.506567 -0.916468 -0.785907
      ESP Fit Center  313 is at  -7.506567 -0.916468 -0.485907
      ESP Fit Center  314 is at  -7.506567 -0.916468 -0.185907
      ESP Fit Center  315 is at  -7.506567 -0.916468  0.114093
      ESP Fit Center  316 is at  -7.506567 -0.916468  0.414093
      ESP Fit Center  317 is at  -7.506567 -0.916468  0.714093
      ESP Fit Center  318 is at  -7.506567 -0.616468 -1.685907
[...]
 **** Fit       0.110056
 **** Fit       0.107992
 **** Fit       0.104377
 **** Fit       0.099678
 **** Fit       0.094771
 **** Fit       0.090665
 **** Fit       0.088091
 **** Fit       0.087233
 **** Fit       0.087738
 **** Fit       0.088950
 **** Fit       0.090211
 **** Fit       0.091059
 **** Fit       0.091273
 **** Fit       0.102331
 **** Fit       0.100736
 **** Fit       0.097708
 **** Fit       0.093430
 **** Fit       0.088467
 **** Fit       0.083690
 **** Fit       0.079997
 **** Fit       0.077975
 **** Fit       0.077714
 **** Fit       0.078843
 **** Fit       0.080727
 **** Fit       0.082715
 **** Fit       0.084330
 **** Fit       0.085320
 **** Fit       0.095651
 **** Fit       0.093446
 **** Fit       0.089987
 **** Fit       0.085527
 **** Fit       0.080647
 **** Fit       0.076156
 **** Fit       0.072841
 **** Fit       0.071183
 **** Fit       0.071225
 **** Fit       0.072611
 **** Fit       0.074755
 **** Fit       0.077055
 **** Fit       0.079047
 **** Fit       0.080470
 **** Fit       0.088025
 **** Fit       0.084550
 **** Fit       0.080278
 **** Fit       0.075742
 **** Fit       0.071655
 **** Fit       0.068691
 **** Fit       0.067257
 **** Fit       0.067378
 **** Fit       0.068737
 **** Fit       0.070820
 **** Fit       0.073094
 **** Fit       0.075139
 **** Fit       0.084172
 **** Fit       0.080973
 **** Fit       0.077134
 **** Fit       0.073117
 **** Fit       0.069515
 **** Fit       0.066889
 **** Fit       0.065583
 **** Fit       0.065625
 **** Fit       0.066756
 **** Fit       0.068549
 **** Fit       0.070555
 **** Fit       0.072413
 **** Fit       0.078771
 **** Fit       0.075500
 **** Fit       0.072086
 **** Fit       0.069005
 **** Fit       0.066706
 **** Fit       0.065473
 **** Fit       0.065345
 **** Fit       0.066132
 **** Fit       0.067501
 **** Fit       0.069096
 **** Fit       0.074805
 **** Fit       0.072000
 **** Fit       0.069426
 **** Fit       0.067430
 **** Fit       0.066245
 **** Fit       0.065920
 **** Fit       0.066329
 **** Fit       0.067234
 **** Fit       0.072323
 **** Fit       0.070204
 **** Fit       0.068480
 **** Fit       0.067337
 **** Fit       0.066833
 **** Fit       0.066896
 **** Fit       0.134043
 **** Fit       0.135668
 **** Fit       0.136279
 **** Fit       0.135869
 **** Fit       0.134500
 **** Fit       0.137438
 **** Fit       0.140307
 **** Fit       0.142110
 **** Fit       0.142756
 **** Fit       0.142255
 **** Fit       0.140695
 **** Fit       0.138206
 **** Fit       0.134101
 **** Fit       0.139057
 **** Fit       0.143265
 **** Fit       0.146444
 **** Fit       0.148390
 **** Fit       0.149024
 **** Fit       0.148390
 **** Fit       0.146613
 **** Fit       0.143851
 **** Fit       0.140252
 **** Fit       0.135960
 **** Fit       0.131125
 **** Fit       0.125916
 **** Fit       0.132637
 **** Fit       0.138658
 **** Fit       0.144197
 **** Fit       0.148879
 **** Fit       0.152353
 **** Fit       0.154384
 **** Fit       0.154921
 **** Fit       0.154072
 **** Fit       0.152029
 **** Fit       0.148979
 **** Fit       0.145062
 **** Fit       0.140400
 **** Fit       0.135136
 **** Fit       0.129455
 **** Fit       0.123567
 **** Fit       0.129331
 **** Fit       0.136108
 **** Fit       0.142781
 **** Fit       0.148957
 **** Fit       0.154154
 **** Fit       0.157912
 **** Fit       0.159948
 **** Fit       0.160254
 **** Fit       0.159055
 **** Fit       0.156651
 **** Fit       0.153273
 **** Fit       0.149044
 **** Fit       0.144040
 **** Fit       0.138383
 **** Fit       0.132271
 **** Fit       0.125948
 **** Fit       0.119648
 **** Fit       0.124461
 **** Fit       0.131532
 **** Fit       0.138883
 **** Fit       0.146220
 **** Fit       0.153076
 **** Fit       0.158831
 **** Fit       0.162866
 **** Fit       0.164808
 **** Fit       0.164708
 **** Fit       0.162971
 **** Fit       0.160067
 **** Fit       0.156299
 **** Fit       0.151760
 **** Fit       0.146463
 **** Fit       0.140489
 **** Fit       0.134041
 **** Fit       0.127388
 **** Fit       0.120793
 **** Fit       0.125412
 **** Fit       0.132831
 **** Fit       0.140651
 **** Fit       0.148576
 **** Fit       0.156072
 **** Fit       0.162368
 **** Fit       0.166638
 **** Fit       0.168375
 **** Fit       0.167695
 **** Fit       0.165237
 **** Fit       0.161702
 **** Fit       0.157493
 **** Fit       0.152672
 **** Fit       0.147174
 **** Fit       0.141026
 **** Fit       0.134412
 **** Fit       0.127613
 **** Fit       0.120903
 **** Fit       0.125410
 **** Fit       0.132977
 **** Fit       0.141041
 **** Fit       0.149314
 **** Fit       0.157221
 **** Fit       0.163864
 **** Fit       0.168220
 **** Fit       0.169635
 **** Fit       0.168284
 **** Fit       0.165044
 **** Fit       0.160862
 **** Fit       0.156246
 **** Fit       0.151240
 **** Fit       0.145708
 **** Fit       0.139609
 **** Fit       0.133087
 **** Fit       0.126405
 **** Fit       0.119823
 **** Fit       0.124334
 **** Fit       0.131768
 **** Fit       0.139719
 **** Fit       0.147910
 **** Fit       0.155753
 **** Fit       0.162296
 **** Fit       0.166415
 **** Fit       0.167388
 **** Fit       0.165430
 **** Fit       0.161575
 **** Fit       0.156933
 **** Fit       0.152096
 **** Fit       0.147110
 **** Fit       0.141793
 **** Fit       0.136037
 **** Fit       0.129927
 **** Fit       0.123673
 **** Fit       0.117500
 **** Fit       0.122158
 **** Fit       0.129135
 **** Fit       0.136545
 **** Fit       0.144109
 **** Fit       0.151258
 **** Fit       0.157079
 **** Fit       0.160518
 **** Fit       0.160921
 **** Fit       0.158541
 **** Fit       0.154425
 **** Fit       0.149693
 **** Fit       0.144962
 **** Fit       0.140296
 **** Fit       0.135496
 **** Fit       0.130405
 **** Fit       0.125031
 **** Fit       0.119510
 **** Fit       0.114016
 **** Fit       0.118973
 **** Fit       0.125197
 **** Fit       0.131672
 **** Fit       0.138114
 **** Fit       0.143995
 **** Fit       0.148535
 **** Fit       0.150895
 **** Fit       0.150613
 **** Fit       0.147990
 **** Fit       0.143963
 **** Fit       0.139534
 **** Fit       0.135272
 **** Fit       0.131246
 **** Fit       0.127259
 **** Fit       0.123113
 **** Fit       0.118738
 **** Fit       0.114189
 **** Fit       0.109583
 **** Fit       0.114986
 **** Fit       0.120250
 **** Fit       0.125531
 **** Fit       0.130543
 **** Fit       0.134828
 **** Fit       0.137787
 **** Fit       0.138859
 **** Fit       0.137824
 **** Fit       0.135035
 **** Fit       0.131297
 **** Fit       0.127429
 **** Fit       0.123903
 **** Fit       0.120763
 **** Fit       0.117801
 **** Fit       0.114778
 **** Fit       0.111554
 **** Fit       0.108109
 **** Fit       0.114691
 **** Fit       0.118693
 **** Fit       0.122203
 **** Fit       0.124850
 **** Fit       0.126223
 **** Fit       0.126018
 **** Fit       0.124238
 **** Fit       0.121296
 **** Fit       0.117885
 **** Fit       0.114662
 **** Fit       0.111979
 **** Fit       0.109825
 **** Fit       0.107960
 **** Fit       0.106101
 **** Fit       0.104047
 **** Fit       0.108929
 **** Fit       0.111720
 **** Fit       0.113850
 **** Fit       0.115036
 **** Fit       0.115029
 **** Fit       0.113731
 **** Fit       0.111310
 **** Fit       0.108232
 **** Fit       0.105116
 **** Fit       0.102493
 **** Fit       0.100607
 **** Fit       0.099382
 **** Fit       0.098534
 **** Fit       0.097739
 **** Fit       0.106055
 **** Fit       0.106079
 **** Fit       0.105014
 **** Fit       0.102903
 **** Fit       0.100026
 **** Fit       0.096876
 **** Fit       0.094019
 **** Fit       0.091893
 **** Fit       0.090657
 **** Fit       0.090180
 **** Fit       0.090148
 **** Fit       0.090209
 **** Fit       0.098373
 **** Fit       0.096603
 **** Fit       0.093994
 **** Fit       0.090881
 **** Fit       0.087760
 **** Fit       0.085144
 **** Fit       0.083399
 **** Fit       0.082625
 **** Fit       0.082662
 **** Fit       0.083186
 **** Fit       0.083839
 **** Fit       0.089917
 **** Fit       0.087102
 **** Fit       0.083967
 **** Fit       0.080979
 **** Fit       0.078597
 **** Fit       0.077127
 **** Fit       0.076634
 **** Fit       0.076953
 **** Fit       0.077774
 **** Fit       0.078754
 **** Fit       0.084859
 **** Fit       0.082077
 **** Fit       0.079093
 **** Fit       0.076325
 **** Fit       0.074172
 **** Fit       0.072891
 **** Fit       0.072531
 **** Fit       0.072940
 **** Fit       0.073838
 **** Fit       0.074915
 **** Fit       0.081194
 **** Fit       0.078618
 **** Fit       0.075906
 **** Fit       0.073418
 **** Fit       0.071489
 **** Fit       0.070336
 **** Fit       0.070000
 **** Fit       0.070356
 **** Fit       0.071168
 **** Fit       0.072168
 **** Fit       0.076356
 **** Fit       0.073986
 **** Fit       0.071806
 **** Fit       0.070093
 **** Fit       0.069026
 **** Fit       0.068648
 **** Fit       0.068863
 **** Fit       0.069485
 **** Fit       0.071040
 **** Fit       0.069530
 **** Fit       0.068527
 **** Fit       0.068075
 **** Fit       0.132708
 **** Fit       0.135216
 **** Fit       0.136751
 **** Fit       0.137255
 **** Fit       0.136752
 **** Fit       0.128995
 **** Fit       0.133380
 **** Fit       0.137043
 **** Fit       0.139751
 **** Fit       0.141347
 **** Fit       0.141789
 **** Fit       0.141131
 **** Fit       0.139493
 **** Fit       0.137005
 **** Fit       0.133788
 **** Fit       0.129956
 **** Fit       0.125632
 **** Fit       0.126855
 **** Fit       0.132125
 **** Fit       0.136908
 **** Fit       0.140884
 **** Fit       0.143763
 **** Fit       0.145367
 **** Fit       0.145671
 **** Fit       0.144788
 **** Fit       0.142891
 **** Fit       0.140145
 **** Fit       0.136674
 **** Fit       0.132581
 **** Fit       0.127981
 **** Fit       0.123019
 **** Fit       0.123059
 **** Fit       0.128891
 **** Fit       0.134551
 **** Fit       0.139709
 **** Fit       0.143972
 **** Fit       0.146982
 **** Fit       0.148524
 **** Fit       0.148602
 **** Fit       0.147407
 **** Fit       0.145193
 **** Fit       0.142168
 **** Fit       0.138461
 **** Fit       0.134154
 **** Fit       0.129347
 **** Fit       0.124181
 **** Fit       0.118827
 **** Fit       0.123944
 **** Fit       0.130034
 **** Fit       0.135992
 **** Fit       0.141441
 **** Fit       0.145919
 **** Fit       0.148987
 **** Fit       0.150387
 **** Fit       0.150157
 **** Fit       0.148579
 **** Fit       0.146007
 **** Fit       0.142706
 **** Fit       0.138806
 **** Fit       0.134368
 **** Fit       0.129464
 **** Fit       0.124221
 **** Fit       0.118808
 **** Fit       0.123870
 **** Fit       0.130049
 **** Fit       0.136123
 **** Fit       0.141688
 **** Fit       0.146225
 **** Fit       0.149225
 **** Fit       0.150397
 **** Fit       0.149809
 **** Fit       0.147836
 **** Fit       0.144927
 **** Fit       0.141404
 **** Fit       0.137403
 **** Fit       0.132960
 **** Fit       0.128115
 **** Fit       0.122970
 **** Fit       0.117674
 **** Fit       0.122716
 **** Fit       0.128748
 **** Fit       0.134672
 **** Fit       0.140075
 **** Fit       0.144416
 **** Fit       0.147165
 **** Fit       0.148019
 **** Fit       0.147078
 **** Fit       0.144781
 **** Fit       0.141645
 **** Fit       0.138029
 **** Fit       0.134075
 **** Fit       0.129799
 **** Fit       0.125206
 **** Fit       0.120362
 **** Fit       0.115384
 **** Fit       0.120455
 **** Fit       0.126073
 **** Fit       0.131533
 **** Fit       0.136439
 **** Fit       0.140279
 **** Fit       0.142556
 **** Fit       0.143007
 **** Fit       0.141764
 **** Fit       0.139285
 **** Fit       0.136100
 **** Fit       0.132580
 **** Fit       0.128865
 **** Fit       0.124953
 **** Fit       0.120817
 **** Fit       0.116479
 **** Fit       0.112014
 **** Fit       0.117185
 **** Fit       0.122143
 **** Fit       0.126856
 **** Fit       0.130963
 **** Fit       0.134024
 **** Fit       0.135635
 **** Fit       0.135617
 **** Fit       0.134131
 **** Fit       0.131620
 **** Fit       0.128580
 **** Fit       0.125355
 **** Fit       0.122072
 **** Fit       0.118710
 **** Fit       0.115209
 **** Fit       0.111547
 **** Fit       0.113115
 **** Fit       0.117247
 **** Fit       0.121025
 **** Fit       0.124142
 **** Fit       0.126255
 **** Fit       0.127089
 **** Fit       0.126565
 **** Fit       0.124881
 **** Fit       0.122446
 **** Fit       0.119693
 **** Fit       0.116918
 **** Fit       0.114213
 **** Fit       0.111535
 **** Fit       0.108788
 **** Fit       0.111769
 **** Fit       0.114549
 **** Fit       0.116627
 **** Fit       0.117766
 **** Fit       0.117814
 **** Fit       0.116795
 **** Fit       0.114945
 **** Fit       0.112637
 **** Fit       0.110239
 **** Fit       0.107984
 **** Fit       0.105924
 **** Fit       0.107941
 **** Fit       0.109057
 **** Fit       0.109311
 **** Fit       0.108659
 **** Fit       0.107211
 **** Fit       0.105229
 **** Fit       0.103062
 **** Fit       0.101020
 **** Fit       0.099276
 **** Fit       0.097838
 **** Fit       0.101935
 **** Fit       0.101473
 **** Fit       0.100272
 **** Fit       0.098500
 **** Fit       0.096439
 **** Fit       0.094415
 **** Fit       0.092689
 **** Fit       0.091386
 **** Fit       0.090476
 **** Fit       0.089816
 **** Fit       0.093045
 **** Fit       0.091079
 **** Fit       0.089006
 **** Fit       0.087124
 **** Fit       0.085658
 **** Fit       0.084695
 **** Fit       0.084181
 **** Fit       0.083959
 **** Fit       0.087136
 **** Fit       0.085108
 **** Fit       0.083090
 **** Fit       0.081353
 **** Fit       0.080089
 **** Fit       0.079361
 **** Fit       0.079103
 **** Fit       0.079159
 **** Fit       0.080544
 **** Fit       0.078640
 **** Fit       0.077050
 **** Fit       0.075937
 **** Fit       0.075350
 **** Fit       0.075225
 **** Fit       0.075463
 **** Fit       0.074020
 **** Fit       0.073019
 **** Fit       0.072501
 **** Fit       0.126655
 **** Fit       0.128786
 **** Fit       0.130050
 **** Fit       0.130410
 **** Fit       0.126384
 **** Fit       0.129463
 **** Fit       0.131695
 **** Fit       0.132962
 **** Fit       0.133236
 **** Fit       0.132574
 **** Fit       0.131078
 **** Fit       0.124358
 **** Fit       0.128302
 **** Fit       0.131528
 **** Fit       0.133818
 **** Fit       0.135038
 **** Fit       0.135177
 **** Fit       0.134327
 **** Fit       0.132628
 **** Fit       0.130223
 **** Fit       0.127226
 **** Fit       0.120667
 **** Fit       0.125222
 **** Fit       0.129291
 **** Fit       0.132591
 **** Fit       0.134871
 **** Fit       0.135989
 **** Fit       0.135947
 **** Fit       0.134878
 **** Fit       0.132970
 **** Fit       0.130394
 **** Fit       0.127272
 **** Fit       0.123693
 **** Fit       0.120473
 **** Fit       0.125039
 **** Fit       0.129107
 **** Fit       0.132368
 **** Fit       0.134550
 **** Fit       0.135502
 **** Fit       0.135248
 **** Fit       0.133959
 **** Fit       0.131865
 **** Fit       0.129167
 **** Fit       0.125993
 **** Fit       0.122425
 **** Fit       0.118529
 **** Fit       0.119259
 **** Fit       0.123668
 **** Fit       0.127563
 **** Fit       0.130634
 **** Fit       0.132604
 **** Fit       0.133329
 **** Fit       0.132852
 **** Fit       0.131376
 **** Fit       0.129161
 **** Fit       0.126427
 **** Fit       0.123304
 **** Fit       0.119864
 **** Fit       0.116154
 **** Fit       0.117011
 **** Fit       0.121074
 **** Fit       0.124608
 **** Fit       0.127319
 **** Fit       0.128956
 **** Fit       0.129397
 **** Fit       0.128707
 **** Fit       0.127107
 **** Fit       0.124866
 **** Fit       0.122206
 **** Fit       0.119258
 **** Fit       0.116075
 **** Fit       0.113822
 **** Fit       0.117370
 **** Fit       0.120373
 **** Fit       0.122577
 **** Fit       0.123776
 **** Fit       0.123891
 **** Fit       0.123010
 **** Fit       0.121355
 **** Fit       0.119188
 **** Fit       0.116719
 **** Fit       0.112807
 **** Fit       0.115167
 **** Fit       0.116768
 **** Fit       0.117467
 **** Fit       0.117237
 **** Fit       0.116188
 **** Fit       0.114537
 **** Fit       0.112526
 **** Fit       0.110337
 **** Fit       0.107719
 **** Fit       0.109397
 **** Fit       0.110371
 **** Fit       0.110562
 **** Fit       0.109995
 **** Fit       0.108804
 **** Fit       0.107197
 **** Fit       0.105387
 **** Fit       0.103872
 **** Fit       0.103600
 **** Fit       0.102736
 **** Fit       0.101433
 **** Fit       0.099890
 **** Fit       0.121039
 **** Fit       0.122811
 **** Fit       0.123779
 **** Fit       0.123928
 **** Fit       0.119100
 **** Fit       0.121602
 **** Fit       0.123343
 **** Fit       0.124234
 **** Fit       0.124267
 **** Fit       0.123508
 **** Fit       0.118726
 **** Fit       0.121163
 **** Fit       0.122810
 **** Fit       0.123579
 **** Fit       0.123476
 **** Fit       0.122585
 **** Fit       0.121032
 **** Fit       0.114420
 **** Fit       0.117336
 **** Fit       0.119612
 **** Fit       0.121092
 **** Fit       0.121698
 **** Fit       0.121447
 **** Fit       0.120440
 **** Fit       0.118818
 **** Fit       0.114922
 **** Fit       0.116938
 **** Fit       0.118180
 **** Fit       0.118584
 **** Fit       0.118184
 **** Fit       0.117091
 **** Fit       0.115454
 **** Fit       0.111585
 **** Fit       0.113255
 **** Fit       0.114198
 **** Fit       0.114374
 **** Fit       0.113832
 **** Fit       0.112689
 **** Fit       0.108796
 **** Fit       0.109404
 **** Fit       0.109340
 **** Fit       0.108667
 -----------------------------------------------------------------
 Leave Link  602 at Wed May 18 23:25:17 2016, MaxMem=  1073741824 cpu:        10.4

 Test job not archived.
 1\1\GINC-E09\SP\RHF\6-31G(d)\C11H17N2O2(1+)\WISE\18-May-2016\0\\# HF/6
 -31G* scf=tight iop(6/33=2) pop=chelpg\\Title Card Required\\1,1\N\H,1
 ,1.00894078\H,1,1.01047326,2,109.07616566\H,1,1.00925242,2,110.9426806
 6,3,-117.08338362,0\C,1,1.53999917,2,109.66836851,3,119.87832561,0\H,5
 ,1.08058862,1,108.23413418,2,-53.03997301,0\C,5,1.54107995,1,108.12977
 744,2,66.65033894,0\H,7,1.08761005,5,107.87292505,1,-48.0832851,0\H,7,
 1.08528884,5,108.9277943,1,67.63716226,0\C,7,1.51452675,5,113.39516225
 ,1,-169.32486315,0\C,10,1.38360163,7,121.28224568,5,-111.551993,0\H,11
 ,1.0762344,10,119.98964984,7,0.54927149,0\C,11,1.38958452,10,121.60993
 797,7,-179.03787781,0\H,13,1.07200738,11,119.10532532,10,179.56794251,
 0\C,13,1.38739741,11,119.70566781,10,0.12904814,0\O,15,1.33333867,13,1
 25.00073336,11,-179.92623485,0\C,16,1.40766923,15,120.49617821,13,-2.6
 0428123,0\H,17,1.08385738,16,111.10297295,15,62.66272196,0\H,17,1.0779
 1972,16,105.93471809,15,-178.66764615,0\H,17,1.08354146,16,111.0556869
 5,15,-59.92589336,0\C,15,1.39853835,13,119.26169089,11,0.06039691,0\H,
 21,1.07346245,15,118.46866699,13,179.2178668,0\C,21,1.37337976,15,120.
 24288928,13,0.17612598,0\H,23,1.07763209,21,118.54027728,15,178.328646
 48,0\C,5,1.53751453,1,103.29428972,7,123.06530664,0\O,25,1.2063051,5,1
 17.37350269,1,-6.85329263,0\N,25,1.3243517,5,117.10211772,1,171.651158
 91,0\H,27,0.99560233,25,119.32104112,5,7.55809209,0\C,27,1.45928835,25
 ,121.61409115,5,179.07539991,0\H,29,1.08217148,27,111.15189348,25,-75.
 13245226,0\H,29,1.0790743,27,109.63561672,25,45.51554403,0\H,29,1.0795
 8797,27,108.18481319,25,164.68378848,0\\Version=AM64L-G09RevD.01\State
 =1-A\HF=-684.8675778\RMSD=5.795e-09\Dipole=2.1607701,2.3779087,1.35155
 49\Quadrupole=4.322567,1.9568354,-6.2794023,17.8606826,14.7308516,15.3
 983689\PG=C01 [X(C11H17N2O2)]\\@


 WISDOM IS KNOWING WHAT TO DO,
 SKILL IS KNOWING HOW TO DO IT,
 AND VIRTUE IS NOT DOING IT.
 Job cpu time:       0 days  0 hours  4 minutes 17.6 seconds.
 File lengths (MBytes):  RWF=     26 Int=      0 D2E=      0 Chk=      4 Scr=      1
 Normal termination of Gaussian 09 at Wed May 18 23:25:17 2016.
