 Entering Gaussian System, Link 0=/programs/g09/g09
 Input=/scratch2/Wise/temp/temp_05192016/temp/NTYR_all_opt.com
 Output=/scratch2/Wise/temp/temp_05192016/temp/NTYR_all_opt.log
 Initial command:
 /programs/g09/l1.exe "/tmp/Wise/NTYR_all_opt/Gau-2746.inp" -scrdir="/tmp/Wise/NTYR_all_opt/"
 Entering Link 1 = /programs/g09/l1.exe PID=      2747.
  
 Copyright (c) 1988,1990,1992,1993,1995,1998,2003,2009,2013,
            Gaussian, Inc.  All Rights Reserved.
  
 This is part of the Gaussian(R) 09 program.  It is based on
 the Gaussian(R) 03 system (copyright 2003, Gaussian, Inc.),
 the Gaussian(R) 98 system (copyright 1998, Gaussian, Inc.),
 the Gaussian(R) 94 system (copyright 1995, Gaussian, Inc.),
 the Gaussian 92(TM) system (copyright 1992, Gaussian, Inc.),
 the Gaussian 90(TM) system (copyright 1990, Gaussian, Inc.),
 the Gaussian 88(TM) system (copyright 1988, Gaussian, Inc.),
 the Gaussian 86(TM) system (copyright 1986, Carnegie Mellon
 University), and the Gaussian 82(TM) system (copyright 1983,
 Carnegie Mellon University). Gaussian is a federally registered
 trademark of Gaussian, Inc.
  
 This software contains proprietary and confidential information,
 including trade secrets, belonging to Gaussian, Inc.
  
 This software is provided under written license and may be
 used, copied, transmitted, or stored only in accord with that
 written license.
  
 The following legend is applicable only to US Government
 contracts under FAR:
  
                    RESTRICTED RIGHTS LEGEND
  
 Use, reproduction and disclosure by the US Government is
 subject to restrictions as set forth in subparagraphs (a)
 and (c) of the Commercial Computer Software - Restricted
 Rights clause in FAR 52.227-19.
  
 Gaussian, Inc.
 340 Quinnipiac St., Bldg. 40, Wallingford CT 06492
  
  
 ---------------------------------------------------------------
 Warning -- This program may not be used in any manner that
 competes with the business of Gaussian, Inc. or will provide
 assistance to any competitor of Gaussian, Inc.  The licensee
 of this program is prohibited from giving any competitor of
 Gaussian, Inc. access to this program.  By using this program,
 the user acknowledges that Gaussian, Inc. is engaged in the
 business of creating and licensing software in the field of
 computational chemistry and represents and warrants to the
 licensee that it is not a competitor of Gaussian, Inc. and that
 it will not use this program in any manner prohibited above.
 ---------------------------------------------------------------
  

 Cite this work as:
 Gaussian 09, Revision D.01,
 M. J. Frisch, G. W. Trucks, H. B. Schlegel, G. E. Scuseria, 
 M. A. Robb, J. R. Cheeseman, G. Scalmani, V. Barone, B. Mennucci, 
 G. A. Petersson, H. Nakatsuji, M. Caricato, X. Li, H. P. Hratchian, 
 A. F. Izmaylov, J. Bloino, G. Zheng, J. L. Sonnenberg, M. Hada, 
 M. Ehara, K. Toyota, R. Fukuda, J. Hasegawa, M. Ishida, T. Nakajima, 
 Y. Honda, O. Kitao, H. Nakai, T. Vreven, J. A. Montgomery, Jr., 
 J. E. Peralta, F. Ogliaro, M. Bearpark, J. J. Heyd, E. Brothers, 
 K. N. Kudin, V. N. Staroverov, T. Keith, R. Kobayashi, J. Normand, 
 K. Raghavachari, A. Rendell, J. C. Burant, S. S. Iyengar, J. Tomasi, 
 M. Cossi, N. Rega, J. M. Millam, M. Klene, J. E. Knox, J. B. Cross, 
 V. Bakken, C. Adamo, J. Jaramillo, R. Gomperts, R. E. Stratmann, 
 O. Yazyev, A. J. Austin, R. Cammi, C. Pomelli, J. W. Ochterski, 
 R. L. Martin, K. Morokuma, V. G. Zakrzewski, G. A. Voth, 
 P. Salvador, J. J. Dannenberg, S. Dapprich, A. D. Daniels, 
 O. Farkas, J. B. Foresman, J. V. Ortiz, J. Cioslowski, 
 and D. J. Fox, Gaussian, Inc., Wallingford CT, 2013.
 
 ******************************************
 Gaussian 09:  AM64L-G09RevD.01 24-Apr-2013
                18-May-2016 
 ******************************************
 %chk=CTYR_all_opt.chk
 %mem=8GB
 %nproc=8
 Will use up to    8 processors via shared memory.
 ----------------------------------
 # opt=z-matrix HF/6-31G* scf=tight
 ----------------------------------
 1/10=7,18=40,38=1/1,3;
 2/12=2,17=6,18=5,29=3,40=1/2;
 3/5=1,6=6,7=1,11=9,16=1,25=1,30=1,71=1/1,2,3;
 4//1;
 5/5=2,32=2,38=5/2;
 6/7=2,8=2,9=2,10=2,28=1/1;
 7/29=1/1,2,3,16;
 1/10=7,18=40/3(2);
 2/29=3/2;
 99//99;
 2/29=3/2;
 3/5=1,6=6,7=1,11=9,16=1,25=1,30=1,71=1/1,2,3;
 4/5=5,16=3,69=1/1;
 5/5=2,32=2,38=5/2;
 7//1,2,3,16;
 1/18=40/3(-5);
 2/29=3/2;
 6/7=2,8=2,9=2,10=2,19=2,28=1/1;
 99/9=1/99;
 -------------------
 Title Card Required
 -------------------
 Symbolic Z-matrix:
 Charge =  1 Multiplicity = 1
 N
 H                    1    B1
 H                    1    B2       2    A1
 H                    1    B3       3    A2       2    D1       0
 C                    1     1.54     3     109.4712  2    -119.99999  0
 H                    5    B4       1     108.23415  2    -53.03997  0
 C                    5    B5       1    A3       6     119.69029  0
 H                    7    B6       5    A4       6    D2       0
 H                    7    B7       5    A5       6    D3       0
 C                    7    B8       5    A6       6    D4       0
 C                    10   B9       7    A7       5    D5       0
 H                    11   B10      10   A8       7    D6       0
 C                    11   B11      10   A9       7    D7       0
 H                    13   B12      11   A10      10   D8       0
 C                    13   B13      11   A11      10   D9       0
 O                    15   B14      13   A12      11   D10      0
 C                    16   B15      15   A13      13   D11      0
 H                    17   B16      16   A14      15   D12      0
 H                    17   B17      16   A15      15   D13      0
 H                    17   B18      16   A16      15   D14      0
 C                    15   B19      13   A17      11   D15      0
 H                    21   B20      15   A18      13   D16      0
 C                    21   B21      15   A19      13   D17      0
 H                    23   B22      21   A20      15   D18      0
 C                    5    B23      7    A21      10   D19      0
 O                    25   B24      5    A22      7    D20      0
 N                    25   B25      5    A23      7    D21      0
 H                    27   B26      25   A24      5    D22      0
 C                    27   B27      25   A25      5    D23      0
 H                    29   B28      27   A26      25   D24      0
 H                    29   B29      27   A27      25   D25      0
 H                    29   B30      27   A28      25   D26      0
       Variables:
  B1                    1.07                     
  B2                    1.07                     
  B3                    1.07                     
  B4                    1.08147                  
  B5                    1.54778                  
  B6                    1.08296                  
  B7                    1.0851                   
  B8                    1.51318                  
  B9                    1.38242                  
  B10                   1.07643                  
  B11                   1.39207                  
  B12                   1.07275                  
  B13                   1.38393                  
  B14                   1.34875                  
  B15                   1.39881                  
  B16                   1.08516                  
  B17                   1.0796                   
  B18                   1.08491                  
  B19                   1.3943                   
  B20                   1.07421                  
  B21                   1.3766                   
  B22                   1.07687                  
  B23                   1.52676                  
  B24                   1.20566                  
  B25                   1.34328                  
  B26                   0.99422                  
  B27                   1.44767                  
  B28                   1.08493                  
  B29                   1.07963                  
  B30                   1.08167                  
  A1                  109.47125                  
  A2                  109.47122                  
  A3                  111.2978                   
  A4                  106.32705                  
  A5                  108.43422                  
  A6                  114.38673                  
  A7                  122.07419                  
  A8                  119.59503                  
  A9                  121.91606                  
  A10                 119.10929                  
  A11                 119.60925                  
  A12                 124.80373                  
  A13                 119.71801                  
  A14                 111.46573                  
  A15                 106.24898                  
  A16                 111.43263                  
  A17                 119.33349                  
  A18                 118.5692                   
  A19                 120.21534                  
  A20                 119.19678                  
  A21                 111.24593                  
  A22                 120.76557                  
  A23                 116.14564                  
  A24                 118.21153                  
  A25                 121.59055                  
  A26                 111.89475                  
  A27                 109.57611                  
  A28                 108.6904                   
  D1                  120.00001                  
  D2                   70.35748                  
  D3                 -174.48725                  
  D4                  -50.69499                  
  D5                 -107.2357                   
  D6                   -0.5946                   
  D7                  179.53938                  
  D8                  179.75337                  
  D9                   -0.05236                  
  D10                -179.85448                  
  D11                  -2.04587                  
  D12                  62.38874                  
  D13                -178.84431                  
  D14                 -60.01913                  
  D15                   0.15706                  
  D16                 179.3749                   
  D17                   0.07831                  
  D18                 178.95613                  
  D19                  70.81316                  
  D20                  91.14782                  
  D21                 -88.90951                  
  D22                   9.54357                  
  D23                 173.0573                   
  D24                 -73.35273                  
  D25                  47.11448                  
  D26                 166.23464                  
 
     3 tetrahedral angles replaced.
    3 tetrahedral angles replaced.

 GradGradGradGradGradGradGradGradGradGradGradGradGradGradGradGradGradGrad
 Berny optimization.
 Initialization pass.
                       ----------------------------
                       !    Initial Parameters    !
                       ! (Angstroms and Degrees)  !
 ----------------------                            ----------------------
 !      Name          Value   Derivative information (Atomic Units)     !
 ------------------------------------------------------------------------
 !       B1          1.07     estimate D2E/DX2                          !
 !       B2          1.07     estimate D2E/DX2                          !
 !       B3          1.07     estimate D2E/DX2                          !
 !       B4          1.0815   estimate D2E/DX2                          !
 !       B5          1.5478   estimate D2E/DX2                          !
 !       B6          1.083    estimate D2E/DX2                          !
 !       B7          1.0851   estimate D2E/DX2                          !
 !       B8          1.5132   estimate D2E/DX2                          !
 !       B9          1.3824   estimate D2E/DX2                          !
 !       B10         1.0764   estimate D2E/DX2                          !
 !       B11         1.3921   estimate D2E/DX2                          !
 !       B12         1.0727   estimate D2E/DX2                          !
 !       B13         1.3839   estimate D2E/DX2                          !
 !       B14         1.3487   estimate D2E/DX2                          !
 !       B15         1.3988   estimate D2E/DX2                          !
 !       B16         1.0852   estimate D2E/DX2                          !
 !       B17         1.0796   estimate D2E/DX2                          !
 !       B18         1.0849   estimate D2E/DX2                          !
 !       B19         1.3943   estimate D2E/DX2                          !
 !       B20         1.0742   estimate D2E/DX2                          !
 !       B21         1.3766   estimate D2E/DX2                          !
 !       B22         1.0769   estimate D2E/DX2                          !
 !       B23         1.5268   estimate D2E/DX2                          !
 !       B24         1.2057   estimate D2E/DX2                          !
 !       B25         1.3433   estimate D2E/DX2                          !
 !       B26         0.9942   estimate D2E/DX2                          !
 !       B27         1.4477   estimate D2E/DX2                          !
 !       B28         1.0849   estimate D2E/DX2                          !
 !       B29         1.0796   estimate D2E/DX2                          !
 !       B30         1.0817   estimate D2E/DX2                          !
 !       A1        109.4712   estimate D2E/DX2                          !
 !       A2        109.4712   estimate D2E/DX2                          !
 !       A3        111.2978   estimate D2E/DX2                          !
 !       A4        106.3271   estimate D2E/DX2                          !
 !       A5        108.4342   estimate D2E/DX2                          !
 !       A6        114.3867   estimate D2E/DX2                          !
 !       A7        122.0742   estimate D2E/DX2                          !
 !       A8        119.595    estimate D2E/DX2                          !
 !       A9        121.9161   estimate D2E/DX2                          !
 !       A10       119.1093   estimate D2E/DX2                          !
 !       A11       119.6092   estimate D2E/DX2                          !
 !       A12       124.8037   estimate D2E/DX2                          !
 !       A13       119.718    estimate D2E/DX2                          !
 !       A14       111.4657   estimate D2E/DX2                          !
 !       A15       106.249    estimate D2E/DX2                          !
 !       A16       111.4326   estimate D2E/DX2                          !
 !       A17       119.3335   estimate D2E/DX2                          !
 !       A18       118.5692   estimate D2E/DX2                          !
 !       A19       120.2153   estimate D2E/DX2                          !
 !       A20       119.1968   estimate D2E/DX2                          !
 !       A21       111.2459   estimate D2E/DX2                          !
 !       A22       120.7656   estimate D2E/DX2                          !
 !       A23       116.1456   estimate D2E/DX2                          !
 !       A24       118.2115   estimate D2E/DX2                          !
 !       A25       121.5905   estimate D2E/DX2                          !
 !       A26       111.8948   estimate D2E/DX2                          !
 !       A27       109.5761   estimate D2E/DX2                          !
 !       A28       108.6904   estimate D2E/DX2                          !
 !       D1        120.0      estimate D2E/DX2                          !
 !       D2         70.3575   estimate D2E/DX2                          !
 !       D3       -174.4872   estimate D2E/DX2                          !
 !       D4        -50.695    estimate D2E/DX2                          !
 !       D5       -107.2357   estimate D2E/DX2                          !
 !       D6         -0.5946   estimate D2E/DX2                          !
 !       D7        179.5394   estimate D2E/DX2                          !
 !       D8        179.7534   estimate D2E/DX2                          !
 !       D9         -0.0524   estimate D2E/DX2                          !
 !       D10      -179.8545   estimate D2E/DX2                          !
 !       D11        -2.0459   estimate D2E/DX2                          !
 !       D12        62.3887   estimate D2E/DX2                          !
 !       D13      -178.8443   estimate D2E/DX2                          !
 !       D14       -60.0191   estimate D2E/DX2                          !
 !       D15         0.1571   estimate D2E/DX2                          !
 !       D16       179.3749   estimate D2E/DX2                          !
 !       D17         0.0783   estimate D2E/DX2                          !
 !       D18       178.9561   estimate D2E/DX2                          !
 !       D19        70.8132   estimate D2E/DX2                          !
 !       D20        91.1478   estimate D2E/DX2                          !
 !       D21       -88.9095   estimate D2E/DX2                          !
 !       D22         9.5436   estimate D2E/DX2                          !
 !       D23       173.0573   estimate D2E/DX2                          !
 !       D24       -73.3527   estimate D2E/DX2                          !
 !       D25        47.1145   estimate D2E/DX2                          !
 !       D26       166.2346   estimate D2E/DX2                          !
 ------------------------------------------------------------------------
 Trust Radius=3.00D-01 FncErr=1.00D-07 GrdErr=1.00D-07
 Number of steps in this run=     94 maximum allowed number of steps=    168.
 GradGradGradGradGradGradGradGradGradGradGradGradGradGradGradGradGradGrad

 ---------------------------------------------------------------------------------------------------
                            Z-MATRIX (ANGSTROMS AND DEGREES)
   CD    Cent   Atom    N1       Length/X        N2       Alpha/Y        N3        Beta/Z          J
 ---------------------------------------------------------------------------------------------------
      1      1  N 
      2      2  H        1   1.070000(     1)
      3      3  H        1   1.070000(     2)      2  109.471(    32)
      4      4  H        1   1.070000(     3)      3  109.471(    33)      2  120.000(    62)      0
      5      5  C        1   1.540000(     4)      3  109.471(    34)      2 -120.000(    63)      0
      6      6  H        5   1.081472(     5)      1  108.234(    35)      2  -53.040(    64)      0
      7      7  C        5   1.547778(     6)      1  111.298(    36)      6  119.690(    65)      0
      8      8  H        7   1.082956(     7)      5  106.327(    37)      6   70.357(    66)      0
      9      9  H        7   1.085102(     8)      5  108.434(    38)      6 -174.487(    67)      0
     10     10  C        7   1.513180(     9)      5  114.387(    39)      6  -50.695(    68)      0
     11     11  C       10   1.382423(    10)      7  122.074(    40)      5 -107.236(    69)      0
     12     12  H       11   1.076430(    11)     10  119.595(    41)      7   -0.595(    70)      0
     13     13  C       11   1.392069(    12)     10  121.916(    42)      7  179.539(    71)      0
     14     14  H       13   1.072749(    13)     11  119.109(    43)     10  179.753(    72)      0
     15     15  C       13   1.383930(    14)     11  119.609(    44)     10   -0.052(    73)      0
     16     16  O       15   1.348747(    15)     13  124.804(    45)     11 -179.854(    74)      0
     17     17  C       16   1.398814(    16)     15  119.718(    46)     13   -2.046(    75)      0
     18     18  H       17   1.085161(    17)     16  111.466(    47)     15   62.389(    76)      0
     19     19  H       17   1.079596(    18)     16  106.249(    48)     15 -178.844(    77)      0
     20     20  H       17   1.084906(    19)     16  111.433(    49)     15  -60.019(    78)      0
     21     21  C       15   1.394301(    20)     13  119.333(    50)     11    0.157(    79)      0
     22     22  H       21   1.074208(    21)     15  118.569(    51)     13  179.375(    80)      0
     23     23  C       21   1.376605(    22)     15  120.215(    52)     13    0.078(    81)      0
     24     24  H       23   1.076873(    23)     21  119.197(    53)     15  178.956(    82)      0
     25     25  C        5   1.526757(    24)      7  111.246(    54)     10   70.813(    83)      0
     26     26  O       25   1.205664(    25)      5  120.766(    55)      7   91.148(    84)      0
     27     27  N       25   1.343284(    26)      5  116.146(    56)      7  -88.910(    85)      0
     28     28  H       27   0.994215(    27)     25  118.212(    57)      5    9.544(    86)      0
     29     29  C       27   1.447673(    28)     25  121.591(    58)      5  173.057(    87)      0
     30     30  H       29   1.084933(    29)     27  111.895(    59)     25  -73.353(    88)      0
     31     31  H       29   1.079629(    30)     27  109.576(    60)     25   47.114(    89)      0
     32     32  H       29   1.081674(    31)     27  108.690(    61)     25  166.235(    90)      0
 ---------------------------------------------------------------------------------------------------
                         Z-Matrix orientation:                         
 ---------------------------------------------------------------------
 Center     Atomic      Atomic             Coordinates (Angstroms)
 Number     Number       Type             X           Y           Z
 ---------------------------------------------------------------------
      1          7           0        0.000000    0.000000    0.000000
      2          1           0        0.000000    0.000000    1.070000
      3          1           0        1.008806    0.000000   -0.356667
      4          1           0       -0.504403    0.873651   -0.356667
      5          6           0       -0.725963   -1.257405   -0.513333
      6          1           0       -0.277614   -2.122367   -0.043860
      7          6           0       -2.232828   -1.219428   -0.161859
      8          1           0       -2.293865   -0.969644    0.890127
      9          1           0       -2.693691   -0.407211   -0.714449
     10          6           0       -2.966968   -2.517616   -0.417711
     11          6           0       -3.852022   -2.665513   -1.469328
     12          1           0       -4.039269   -1.834538   -2.127446
     13          6           0       -4.518547   -3.864261   -1.707245
     14          1           0       -5.198856   -3.927891   -2.534240
     15          6           0       -4.296415   -4.947086   -0.874534
     16          8           0       -4.881664   -6.154735   -1.009387
     17          6           0       -5.818658   -6.361448   -2.027224
     18          1           0       -5.373665   -6.233383   -3.008629
     19          1           0       -6.157868   -7.381061   -1.923036
     20          1           0       -6.666370   -5.691752   -1.927668
     21          6           0       -3.408994   -4.817075    0.193013
     22          1           0       -3.253485   -5.662199    0.837608
     23          6           0       -2.762848   -3.622010    0.415171
     24          1           0       -2.093815   -3.534655    1.254469
     25          6           0       -0.511400   -1.311232   -2.023980
     26          8           0       -0.386102   -0.298184   -2.665586
     27          7           0       -0.471979   -2.536583   -2.572956
     28          1           0       -0.724719   -3.313666   -2.006627
     29          6           0       -0.423199   -2.723583   -4.007671
     30          1           0       -1.377372   -2.507254   -4.476537
     31          1           0        0.324326   -2.070567   -4.432375
     32          1           0       -0.154210   -3.750677   -4.214412
 ---------------------------------------------------------------------
                    Distance matrix (angstroms):
                    1          2          3          4          5
     1  N    0.000000
     2  H    1.070000   0.000000
     3  H    1.070000   1.747303   0.000000
     4  H    1.070000   1.747303   1.747303   0.000000
     5  C    1.540000   2.148263   2.148263   2.148263   0.000000
     6  H    2.140896   2.412922   2.501432   3.020829   1.081472
     7  C    2.549259   2.826659   3.468882   2.721467   1.547778
     8  H    2.644683   2.496874   3.660920   2.855592   2.123870
     9  H    2.816422   3.256693   3.741966   2.561562   2.152959
    10  C    3.913537   4.165882   4.706261   4.191497   2.572816
    11  C    4.909375   5.328341   5.654257   4.997025   3.559346
    12  H    4.920087   5.468536   5.655462   4.792205   3.730475
    13  C    6.185828   6.562230   6.878096   6.354937   4.754452
    14  H    6.991338   7.446273   7.661933   7.059357   5.587695
    15  C    6.610420   6.834768   7.272360   6.966242   5.147071
    16  O    7.920244   8.126208   8.544264   8.305701   6.442031
    17  C    8.856322   9.160655   9.480139   9.131195   7.367406
    18  H    8.762602   9.185127   9.307196   9.014020   7.251758
    19  H    9.802931  10.067654  10.406478  10.126966   8.306143
    20  H    8.975101   9.264046   9.683615   9.140153   7.546669
    21  C    5.904465   5.966118   6.559216   6.412734   4.513184
    22  H    6.583863   6.534498   7.187065   7.190346   5.255057
    23  C    4.574347   4.602291   5.285836   5.089919   3.256129
    24  H    4.295526   4.112406   4.971499   4.955316   3.190927
    25  C    2.465229   3.399054   2.609653   2.748399   1.526757
    26  O    2.709859   3.767306   2.713999   2.591969   2.380715
    27  N    3.643778   4.464095   3.679526   4.067270   2.437796
    28  H    3.941085   4.579436   4.087525   4.506055   2.541286
    29  C    4.863993   5.777520   4.774764   5.126062   3.801544
    30  H    5.312519   6.240797   5.380845   5.400548   4.206357
    31  H    4.902895   5.888002   4.622462   5.095744   4.138022
    32  H    5.643813   6.482003   5.504760   6.032350   4.499032
                    6          7          8          9         10
     6  H    0.000000
     7  C    2.156869   0.000000
     8  H    2.503272   1.082956   0.000000
     9  H    3.037907   1.085102   1.746670   0.000000
    10  C    2.743832   1.513180   2.135352   2.148614   0.000000
    11  C    3.886305   2.534251   3.297098   2.647924   1.382423
    12  H    4.309783   2.739548   3.591689   2.417520   2.130638
    13  C    4.877147   3.822024   4.480442   4.033229   2.425643
    14  H    5.803494   4.664900   5.377406   4.688569   3.383769
    15  C    4.981950   4.319923   4.790020   4.817138   2.806856
    16  O    6.195927   5.664971   6.098363   6.156967   4.152683
    17  C    7.253049   6.540500   7.071539   6.851404   5.049526
    18  H    7.187493   6.565721   7.238261   6.811006   5.129519
    19  H    8.109412   7.514879   7.996917   7.880088   6.008405
    20  H    7.556815   6.540341   7.025459   6.721640   5.103007
    21  C    4.138007   3.801626   4.065982   4.558732   2.419892
    22  H    4.707781   4.666786   4.789959   5.507917   3.397987
    23  C    2.938712   2.527110   2.735064   3.408189   1.398229
    24  H    2.641743   2.717644   2.598471   3.743981   2.143117
    25  C    2.152550   2.537564   3.433057   2.700837   3.172582
    26  O    3.195757   3.244647   4.090662   3.023871   4.079178
    27  N    2.570152   3.263261   4.215152   3.595035   3.297031
    28  H    2.339135   3.172284   4.043246   3.740863   2.861124
    29  C    4.011789   4.508603   5.528482   4.622340   4.404656
    30  H    4.583256   4.583311   5.657322   4.505128   4.359013
    31  H    4.429908   5.049829   6.032909   5.069335   5.210566
    32  H    4.478853   5.210667   6.194238   5.466029   4.883338
                   11         12         13         14         15
    11  C    0.000000
    12  H    1.076430   0.000000
    13  C    1.392069   2.127452   0.000000
    14  H    2.131103   2.427396   1.072749   0.000000
    15  C    2.399342   3.365096   1.383930   2.146575   0.000000
    16  O    3.666930   4.541343   2.421804   2.717466   1.348747
    17  C    4.223605   4.865099   2.833482   2.561917   2.376202
    18  H    4.173073   4.680484   2.835060   2.360274   2.714662
    19  H    5.268696   5.940889   3.886106   3.635609   3.238610
    20  H    4.157974   4.671153   2.828684   2.373338   2.698204
    21  C    2.754790   3.831097   2.397903   3.381148   1.394301
    22  H    3.828881   4.905099   3.362922   4.261650   2.128502
    23  C    2.377504   3.359942   2.765107   3.837542   2.402290
    24  H    3.356452   4.255883   3.841837   4.914289   3.373286
    25  C    3.647119   3.567971   4.761880   5.392543   5.372802
    26  O    4.364389   3.999451   5.541879   6.029480   6.333302
    27  N    3.557993   3.662910   4.345906   4.927536   4.829231
    28  H    3.238644   3.631620   3.845245   4.546818   4.087384
    29  C    4.266542   4.171523   4.833733   5.140842   5.455485
    30  H    3.897723   3.613374   4.401980   4.516024   5.239086
    31  H    5.155143   4.940584   5.839271   6.128467   6.502603
    32  H    4.731478   4.808399   5.034503   5.320041   5.453810
                   16         17         18         19         20
    16  O    0.000000
    17  C    1.398814   0.000000
    18  H    2.060393   1.085161   0.000000
    19  H    1.991815   1.079596   1.763703   0.000000
    20  H    2.059799   1.084906   1.770008   1.764188   0.000000
    21  C    2.324620   3.622295   4.014520   4.313698   3.984074
    22  H    2.510966   3.908494   4.428878   4.360170   4.392654
    23  C    3.596310   4.775751   5.035677   5.578874   5.001021
    24  H    4.445443   5.712680   6.017853   6.434897   5.973886
    25  C    6.602130   7.326096   6.988471   8.290694   7.555255
    26  O    7.566523   8.165987   7.760158   9.166886   8.311249
    27  N    5.914482   6.596544   6.154890   7.498046   6.981545
    28  H    5.132870   5.936128   5.580453   6.787473   6.400371
    29  C    6.374983   6.802000   6.150113   7.676211   7.218976
    30  H    6.132317   6.370162   5.657663   7.288861   6.679166
    31  H    7.449806   7.869731   7.198833   8.747397   8.261741
    32  H    6.196814   6.609530   5.904274   7.380650   7.169742
                   21         22         23         24         25
    21  C    0.000000
    22  H    1.074208   0.000000
    23  C    1.376605   2.140455   0.000000
    24  H    2.121552   2.458668   1.076873   0.000000
    25  C    5.059846   5.885459   4.044523   4.265662   0.000000
    26  O    6.142462   7.019039   5.117402   5.362636   1.205664
    27  N    4.634359   5.397981   3.918563   4.275007   1.343284
    28  H    3.782061   4.472129   3.180275   3.543728   2.013839
    29  C    5.562681   6.334249   5.083567   5.580225   2.436708
    30  H    5.591731   6.458608   5.204905   5.866283   2.862763
    31  H    6.547916   7.312543   5.952842   6.350682   2.659962
    32  H    5.581775   6.227546   5.315504   5.806668   3.297949
                   26         27         28         29         30
    26  O    0.000000
    27  N    2.241960   0.000000
    28  H    3.105160   0.994215   0.000000
    29  C    2.772206   1.447673   2.107911   0.000000
    30  H    3.023598   2.108131   2.678939   1.084933   0.000000
    31  H    2.601459   2.075744   2.920624   1.079629   1.757390
    32  H    3.791087   2.066248   2.321804   1.081674   1.763785
                   31         32
    31  H    0.000000
    32  H    1.760476   0.000000
 Stoichiometry    C11H17N2O2(1+)
 Framework group  C1[X(C11H17N2O2)]
 Deg. of freedom    90
 Full point group                 C1      NOp   1
 Largest Abelian subgroup         C1      NOp   1
 Largest concise Abelian subgroup C1      NOp   1
                         Standard orientation:                         
 ---------------------------------------------------------------------
 Center     Atomic      Atomic             Coordinates (Angstroms)
 Number     Number       Type             X           Y           Z
 ---------------------------------------------------------------------
      1          7           0        3.726461   -1.479950   -0.114694
      2          1           0        3.682813   -2.507948   -0.408320
      3          1           0        4.443780   -0.966256   -0.720063
      4          1           0        4.015390   -1.414657    0.913487
      5          6           0        2.341035   -0.833712   -0.300626
      6          1           0        2.014679   -1.018796   -1.314933
      7          6           0        1.304163   -1.435196    0.678522
      8          1           0        1.397641   -2.511088    0.597839
      9          1           0        1.587412   -1.160797    1.689424
     10          6           0       -0.126675   -1.028761    0.400620
     11          6           0       -0.806271   -0.135995    1.208214
     12          1           0       -0.314670    0.282058    2.069760
     13          6           0       -2.119511    0.242835    0.944121
     14          1           0       -2.605280    0.936004    1.603163
     15          6           0       -2.774323   -0.281736   -0.156473
     16          8           0       -4.041523    0.013810   -0.511402
     17          6           0       -4.800808    0.878233    0.284172
     18          1           0       -4.359048    1.868431    0.328106
     19          1           0       -5.771676    0.944539   -0.183318
     20          1           0       -4.915737    0.491799    1.291386
     21          6           0       -2.106539   -1.185478   -0.981935
     22          1           0       -2.629832   -1.592813   -1.827018
     23          6           0       -0.809490   -1.551814   -0.701752
     24          1           0       -0.315086   -2.263924   -1.340594
     25          6           0        2.513575    0.665831   -0.071307
     26          8           0        3.352645    1.081024    0.688431
     27          7           0        1.685756    1.469033   -0.759779
     28          1           0        0.929989    1.052738   -1.253722
     29          6           0        1.644321    2.896765   -0.523938
     30          1           0        1.153685    3.137953    0.413176
     31          1           0        2.650131    3.288124   -0.495955
     32          1           0        1.104471    3.366549   -1.335040
 ---------------------------------------------------------------------
 Rotational constants (GHZ):      1.1093163      0.3109589      0.2695690
 Standard basis: 6-31G(d) (6D, 7F)
 There are   259 symmetry adapted cartesian basis functions of A   symmetry.
 There are   259 symmetry adapted basis functions of A   symmetry.
   259 basis functions,   488 primitive gaussians,   259 cartesian basis functions
    56 alpha electrons       56 beta electrons
       nuclear repulsion energy      1010.7651483973 Hartrees.
 NAtoms=   32 NActive=   32 NUniq=   32 SFac= 1.00D+00 NAtFMM=   60 NAOKFM=F Big=F
 Integral buffers will be    131072 words long.
 Raffenetti 1 integral format.
 Two-electron integral symmetry is turned on.
 One-electron integrals computed using PRISM.
 NBasis=   259 RedAO= T EigKep=  3.96D-04  NBF=   259
 NBsUse=   259 1.00D-06 EigRej= -1.00D+00 NBFU=   259
 ExpMin= 1.61D-01 ExpMax= 5.48D+03 ExpMxC= 8.25D+02 IAcc=1 IRadAn=         1 AccDes= 0.00D+00
 Harris functional with IExCor=  205 and IRadAn=       1 diagonalized for initial guess.
 HarFok:  IExCor=  205 AccDes= 0.00D+00 IRadAn=         1 IDoV= 1 UseB2=F ITyADJ=14
 ICtDFT=  3500011 ScaDFX=  1.000000  1.000000  1.000000  1.000000
 FoFCou: FMM=F IPFlag=           0 FMFlag=      100000 FMFlg1=           0
         NFxFlg=           0 DoJE=T BraDBF=F KetDBF=T FulRan=T
         wScrn=  0.000000 ICntrl=     500 IOpCl=  0 I1Cent=   200000004 NGrid=           0
         NMat0=    1 NMatS0=      1 NMatT0=    0 NMatD0=    1 NMtDS0=    0 NMtDT0=    0
 Petite list used in FoFCou.
 Keep R1 ints in memory in canonical form, NReq=575862991.
 Requested convergence on RMS density matrix=1.00D-08 within 128 cycles.
 Requested convergence on MAX density matrix=1.00D-06.
 Requested convergence on             energy=1.00D-06.
 No special actions if energy rises.
 SCF Done:  E(RHF) =  -684.853891459     A.U. after   15 cycles
            NFock= 15  Conv=0.63D-08     -V/T= 2.0019

 **********************************************************************

            Population analysis using the SCF density.

 **********************************************************************

 Orbital symmetries:
       Occupied  (A) (A) (A) (A) (A) (A) (A) (A) (A) (A) (A) (A)
                 (A) (A) (A) (A) (A) (A) (A) (A) (A) (A) (A) (A)
                 (A) (A) (A) (A) (A) (A) (A) (A) (A) (A) (A) (A)
                 (A) (A) (A) (A) (A) (A) (A) (A) (A) (A) (A) (A)
                 (A) (A) (A) (A) (A) (A) (A) (A)
       Virtual   (A) (A) (A) (A) (A) (A) (A) (A) (A) (A) (A) (A)
                 (A) (A) (A) (A) (A) (A) (A) (A) (A) (A) (A) (A)
                 (A) (A) (A) (A) (A) (A) (A) (A) (A) (A) (A) (A)
                 (A) (A) (A) (A) (A) (A) (A) (A) (A) (A) (A) (A)
                 (A) (A) (A) (A) (A) (A) (A) (A) (A) (A) (A) (A)
                 (A) (A) (A) (A) (A) (A) (A) (A) (A) (A) (A) (A)
                 (A) (A) (A) (A) (A) (A) (A) (A) (A) (A) (A) (A)
                 (A) (A) (A) (A) (A) (A) (A) (A) (A) (A) (A) (A)
                 (A) (A) (A) (A) (A) (A) (A) (A) (A) (A) (A) (A)
                 (A) (A) (A) (A) (A) (A) (A) (A) (A) (A) (A) (A)
                 (A) (A) (A) (A) (A) (A) (A) (A) (A) (A) (A) (A)
                 (A) (A) (A) (A) (A) (A) (A) (A) (A) (A) (A) (A)
                 (A) (A) (A) (A) (A) (A) (A) (A) (A) (A) (A) (A)
                 (A) (A) (A) (A) (A) (A) (A) (A) (A) (A) (A) (A)
                 (A) (A) (A) (A) (A) (A) (A) (A) (A) (A) (A) (A)
                 (A) (A) (A) (A) (A) (A) (A) (A) (A) (A) (A) (A)
                 (A) (A) (A) (A) (A) (A) (A) (A) (A) (A) (A)
 The electronic state is 1-A.
 Alpha  occ. eigenvalues --  -20.68523 -20.67872 -15.89554 -15.72553 -11.50477
 Alpha  occ. eigenvalues --  -11.47946 -11.40922 -11.40259 -11.37013 -11.36479
 Alpha  occ. eigenvalues --  -11.36123 -11.35724 -11.35652 -11.33821 -11.33725
 Alpha  occ. eigenvalues --   -1.54891  -1.51409  -1.47041  -1.37447  -1.28137
 Alpha  occ. eigenvalues --   -1.22315  -1.14391  -1.13511  -1.08928  -1.05259
 Alpha  occ. eigenvalues --   -1.02010  -0.95783  -0.94705  -0.93424  -0.92776
 Alpha  occ. eigenvalues --   -0.90253  -0.85705  -0.83518  -0.82436  -0.78758
 Alpha  occ. eigenvalues --   -0.77219  -0.76763  -0.75807  -0.74911  -0.74101
 Alpha  occ. eigenvalues --   -0.73104  -0.70783  -0.70180  -0.70164  -0.66982
 Alpha  occ. eigenvalues --   -0.66840  -0.66046  -0.63727  -0.62657  -0.61882
 Alpha  occ. eigenvalues --   -0.58135  -0.57830  -0.56732  -0.52542  -0.45462
 Alpha  occ. eigenvalues --   -0.42059
 Alpha virt. eigenvalues --   -0.01487   0.02221   0.02763   0.03283   0.05942
 Alpha virt. eigenvalues --    0.06503   0.10242   0.11892   0.13280   0.14508
 Alpha virt. eigenvalues --    0.15753   0.16702   0.17751   0.18422   0.20093
 Alpha virt. eigenvalues --    0.21402   0.22048   0.22977   0.23231   0.23551
 Alpha virt. eigenvalues --    0.23781   0.24440   0.25522   0.26595   0.26841
 Alpha virt. eigenvalues --    0.29942   0.30591   0.35493   0.37032   0.38246
 Alpha virt. eigenvalues --    0.40538   0.41109   0.45198   0.46277   0.55113
 Alpha virt. eigenvalues --    0.57117   0.58575   0.59457   0.60090   0.61328
 Alpha virt. eigenvalues --    0.62807   0.64174   0.64436   0.64978   0.66641
 Alpha virt. eigenvalues --    0.68184   0.68618   0.69925   0.71542   0.72542
 Alpha virt. eigenvalues --    0.72932   0.74402   0.74800   0.75511   0.76247
 Alpha virt. eigenvalues --    0.77665   0.79146   0.80632   0.81455   0.84271
 Alpha virt. eigenvalues --    0.84383   0.87799   0.88502   0.88892   0.90051
 Alpha virt. eigenvalues --    0.90332   0.90807   0.91554   0.94032   0.94864
 Alpha virt. eigenvalues --    0.97450   0.98248   0.98996   1.00235   1.01377
 Alpha virt. eigenvalues --    1.02237   1.03091   1.03431   1.04346   1.04912
 Alpha virt. eigenvalues --    1.05507   1.06139   1.06920   1.08576   1.09847
 Alpha virt. eigenvalues --    1.10846   1.11826   1.11945   1.13803   1.14583
 Alpha virt. eigenvalues --    1.16238   1.18111   1.21124   1.23123   1.24325
 Alpha virt. eigenvalues --    1.25165   1.28302   1.29797   1.31073   1.34285
 Alpha virt. eigenvalues --    1.35065   1.39276   1.41760   1.45249   1.47445
 Alpha virt. eigenvalues --    1.50191   1.53067   1.54663   1.55408   1.56822
 Alpha virt. eigenvalues --    1.59610   1.61334   1.61582   1.64297   1.64505
 Alpha virt. eigenvalues --    1.67810   1.68563   1.70124   1.71252   1.74588
 Alpha virt. eigenvalues --    1.83863   1.86960   1.87613   1.90045   1.92097
 Alpha virt. eigenvalues --    1.95702   1.97101   2.00026   2.01529   2.03610
 Alpha virt. eigenvalues --    2.04247   2.05103   2.07439   2.08470   2.11186
 Alpha virt. eigenvalues --    2.12959   2.14465   2.17129   2.17877   2.20302
 Alpha virt. eigenvalues --    2.22109   2.22666   2.24645   2.26305   2.28008
 Alpha virt. eigenvalues --    2.30212   2.32415   2.33280   2.34761   2.35878
 Alpha virt. eigenvalues --    2.37350   2.38880   2.39712   2.41232   2.44843
 Alpha virt. eigenvalues --    2.48240   2.49057   2.50066   2.52230   2.54537
 Alpha virt. eigenvalues --    2.54861   2.58459   2.59765   2.61304   2.62836
 Alpha virt. eigenvalues --    2.66720   2.68280   2.73198   2.77411   2.80364
 Alpha virt. eigenvalues --    2.82919   2.83336   2.88042   2.92056   2.92622
 Alpha virt. eigenvalues --    2.93149   2.93718   2.95926   3.03548   3.06865
 Alpha virt. eigenvalues --    3.11680   3.15582   3.20983   3.24611   3.25878
 Alpha virt. eigenvalues --    3.40167   3.48960   3.72798   3.96843   4.26250
 Alpha virt. eigenvalues --    4.38113   4.38520   4.43396   4.46545   4.55034
 Alpha virt. eigenvalues --    4.57759   4.59749   4.65436   4.69937   4.73775
 Alpha virt. eigenvalues --    4.83218   4.88919   5.09257
          Condensed to atoms (all electrons):
               1          2          3          4          5          6
     1  N    6.984003   0.299464   0.295476   0.287387   0.138101  -0.031293
     2  H    0.299464   0.269232  -0.008206  -0.008335  -0.022458  -0.002223
     3  H    0.295476  -0.008206   0.253192  -0.007388  -0.019024  -0.000821
     4  H    0.287387  -0.008335  -0.007388   0.249647  -0.018037   0.002315
     5  C    0.138101  -0.022458  -0.019024  -0.018037   5.431996   0.394255
     6  H   -0.031293  -0.002223  -0.000821   0.002315   0.394255   0.433324
     7  C   -0.050252   0.000732   0.002311  -0.000365   0.281463  -0.032371
     8  H   -0.000534   0.002243  -0.000079  -0.000128  -0.060705  -0.002263
     9  H   -0.000811  -0.000111  -0.000096   0.002614  -0.042670   0.003222
    10  C    0.002404  -0.000101  -0.000039   0.000005  -0.051312   0.000873
    11  C   -0.000024  -0.000001   0.000000   0.000006  -0.002468   0.000454
    12  H   -0.000007   0.000000   0.000000   0.000000  -0.000013   0.000004
    13  C    0.000000   0.000000   0.000000   0.000000  -0.000064  -0.000016
    14  H    0.000000   0.000000   0.000000   0.000000   0.000000   0.000000
    15  C    0.000000   0.000000   0.000000   0.000000   0.000002  -0.000002
    16  O    0.000000   0.000000   0.000000   0.000000   0.000000   0.000000
    17  C    0.000000   0.000000   0.000000   0.000000   0.000000   0.000000
    18  H    0.000000   0.000000   0.000000   0.000000   0.000000   0.000000
    19  H    0.000000   0.000000   0.000000   0.000000   0.000000   0.000000
    20  H    0.000000   0.000000   0.000000   0.000000   0.000000   0.000000
    21  C    0.000000   0.000000   0.000000   0.000000   0.000071  -0.000027
    22  H    0.000000   0.000000   0.000000   0.000000   0.000000   0.000004
    23  C   -0.000001   0.000025   0.000001  -0.000004  -0.004314   0.001570
    24  H   -0.000042   0.000008   0.000002   0.000000  -0.000274   0.000963
    25  C   -0.050916   0.003522  -0.000403  -0.001542   0.317276  -0.037809
    26  O    0.000763   0.000208   0.003670   0.007923  -0.087310   0.001790
    27  N    0.001553  -0.000028   0.000118   0.000288  -0.115019   0.006461
    28  H    0.000090  -0.000001  -0.000012  -0.000010   0.000946   0.000830
    29  C   -0.000071   0.000001  -0.000012  -0.000004   0.003881  -0.000036
    30  H   -0.000002   0.000000   0.000000   0.000000  -0.000110   0.000008
    31  H    0.000006   0.000000   0.000001  -0.000001   0.000064  -0.000016
    32  H    0.000001   0.000000   0.000000   0.000000  -0.000016  -0.000015
               7          8          9         10         11         12
     1  N   -0.050252  -0.000534  -0.000811   0.002404  -0.000024  -0.000007
     2  H    0.000732   0.002243  -0.000111  -0.000101  -0.000001   0.000000
     3  H    0.002311  -0.000079  -0.000096  -0.000039   0.000000   0.000000
     4  H   -0.000365  -0.000128   0.002614   0.000005   0.000006   0.000000
     5  C    0.281463  -0.060705  -0.042670  -0.051312  -0.002468  -0.000013
     6  H   -0.032371  -0.002263   0.003222   0.000873   0.000454   0.000004
     7  C    5.160720   0.403555   0.398886   0.336535  -0.037463  -0.002634
     8  H    0.403555   0.496006  -0.020204  -0.032831   0.000154   0.000026
     9  H    0.398886  -0.020204   0.457041  -0.033398   0.001315   0.002514
    10  C    0.336535  -0.032831  -0.033398   4.885336   0.579530  -0.034130
    11  C   -0.037463   0.000154   0.001315   0.579530   4.895501   0.379235
    12  H   -0.002634   0.000026   0.002514  -0.034130   0.379235   0.449236
    13  C    0.003610  -0.000045   0.000169  -0.050589   0.501787  -0.021181
    14  H   -0.000116   0.000002  -0.000007   0.001765  -0.025526  -0.001270
    15  C    0.000193   0.000016  -0.000005  -0.023479  -0.024301   0.000946
    16  O    0.000000   0.000000   0.000000   0.000100   0.003731  -0.000036
    17  C    0.000000   0.000000   0.000000   0.000019  -0.000392  -0.000005
    18  H    0.000000   0.000000   0.000000   0.000000  -0.000223  -0.000001
    19  H    0.000000   0.000000   0.000000   0.000000   0.000014   0.000000
    20  H    0.000000   0.000000   0.000000  -0.000004  -0.000196   0.000001
    21  C    0.002490   0.000052  -0.000015  -0.050598  -0.034666   0.000265
    22  H   -0.000107  -0.000005   0.000002   0.002073  -0.000082   0.000010
    23  C   -0.054319  -0.000391   0.002080   0.534282  -0.039686   0.002722
    24  H   -0.001535   0.001601  -0.000003  -0.044529   0.002738  -0.000125
    25  C   -0.041582   0.004737  -0.003619  -0.002574   0.001190   0.000134
    26  O   -0.001073  -0.000071   0.002314  -0.000259   0.000013   0.000026
    27  N   -0.001343  -0.000118   0.000366  -0.001678  -0.000358  -0.000041
    28  H   -0.000978   0.000047  -0.000003   0.004247   0.000016   0.000004
    29  C   -0.000111   0.000003  -0.000003   0.000112  -0.000014   0.000018
    30  H    0.000050   0.000000   0.000009   0.000040   0.000310   0.000076
    31  H   -0.000012   0.000000  -0.000002  -0.000001   0.000004   0.000000
    32  H   -0.000003   0.000000   0.000000  -0.000005  -0.000010  -0.000001
              13         14         15         16         17         18
     1  N    0.000000   0.000000   0.000000   0.000000   0.000000   0.000000
     2  H    0.000000   0.000000   0.000000   0.000000   0.000000   0.000000
     3  H    0.000000   0.000000   0.000000   0.000000   0.000000   0.000000
     4  H    0.000000   0.000000   0.000000   0.000000   0.000000   0.000000
     5  C   -0.000064   0.000000   0.000002   0.000000   0.000000   0.000000
     6  H   -0.000016   0.000000  -0.000002   0.000000   0.000000   0.000000
     7  C    0.003610  -0.000116   0.000193   0.000000   0.000000   0.000000
     8  H   -0.000045   0.000002   0.000016   0.000000   0.000000   0.000000
     9  H    0.000169  -0.000007  -0.000005   0.000000   0.000000   0.000000
    10  C   -0.050589   0.001765  -0.023479   0.000100   0.000019   0.000000
    11  C    0.501787  -0.025526  -0.024301   0.003731  -0.000392  -0.000223
    12  H   -0.021181  -0.001270   0.000946  -0.000036  -0.000005  -0.000001
    13  C    5.079267   0.379581   0.538478  -0.055559  -0.006916   0.000875
    14  H    0.379581   0.431039  -0.025901  -0.004339   0.002409   0.000102
    15  C    0.538478  -0.025901   4.340792   0.275391  -0.041920  -0.002159
    16  O   -0.055559  -0.004339   0.275391   8.389580   0.188277  -0.038119
    17  C   -0.006916   0.002409  -0.041920   0.188277   4.872395   0.390442
    18  H    0.000875   0.000102  -0.002159  -0.038119   0.390442   0.550797
    19  H    0.000268   0.000003   0.002275  -0.031543   0.405446  -0.026643
    20  H    0.000996   0.000118  -0.002170  -0.037405   0.391627  -0.042412
    21  C   -0.057630   0.002239   0.574176  -0.052005   0.002659  -0.000043
    22  H    0.004057  -0.000092  -0.023905   0.000983  -0.000087   0.000017
    23  C   -0.034292   0.000305  -0.040267   0.002285  -0.000096  -0.000003
    24  H    0.000090   0.000011   0.001889  -0.000051   0.000002   0.000000
    25  C    0.000029   0.000001   0.000004   0.000000   0.000000   0.000000
    26  O    0.000001   0.000000   0.000000   0.000000   0.000000   0.000000
    27  N    0.000012  -0.000001   0.000003   0.000000   0.000000   0.000000
    28  H   -0.000245   0.000002  -0.000031   0.000000   0.000000   0.000000
    29  C    0.000009   0.000000  -0.000002   0.000000   0.000000   0.000000
    30  H    0.000065   0.000001   0.000000   0.000000   0.000000   0.000000
    31  H    0.000001   0.000000   0.000000   0.000000   0.000000   0.000000
    32  H    0.000000   0.000000   0.000000   0.000000   0.000000   0.000000
              19         20         21         22         23         24
     1  N    0.000000   0.000000   0.000000   0.000000  -0.000001  -0.000042
     2  H    0.000000   0.000000   0.000000   0.000000   0.000025   0.000008
     3  H    0.000000   0.000000   0.000000   0.000000   0.000001   0.000002
     4  H    0.000000   0.000000   0.000000   0.000000  -0.000004   0.000000
     5  C    0.000000   0.000000   0.000071   0.000000  -0.004314  -0.000274
     6  H    0.000000   0.000000  -0.000027   0.000004   0.001570   0.000963
     7  C    0.000000   0.000000   0.002490  -0.000107  -0.054319  -0.001535
     8  H    0.000000   0.000000   0.000052  -0.000005  -0.000391   0.001601
     9  H    0.000000   0.000000  -0.000015   0.000002   0.002080  -0.000003
    10  C    0.000000  -0.000004  -0.050598   0.002073   0.534282  -0.044529
    11  C    0.000014  -0.000196  -0.034666  -0.000082  -0.039686   0.002738
    12  H    0.000000   0.000001   0.000265   0.000010   0.002722  -0.000125
    13  C    0.000268   0.000996  -0.057630   0.004057  -0.034292   0.000090
    14  H    0.000003   0.000118   0.002239  -0.000092   0.000305   0.000011
    15  C    0.002275  -0.002170   0.574176  -0.023905  -0.040267   0.001889
    16  O   -0.031543  -0.037405  -0.052005   0.000983   0.002285  -0.000051
    17  C    0.405446   0.391627   0.002659  -0.000087  -0.000096   0.000002
    18  H   -0.026643  -0.042412  -0.000043   0.000017  -0.000003   0.000000
    19  H    0.459867  -0.025556  -0.000010  -0.000021   0.000003   0.000000
    20  H   -0.025556   0.540247  -0.000015   0.000017   0.000002   0.000000
    21  C   -0.000010  -0.000015   4.943703   0.373687   0.554351  -0.019250
    22  H   -0.000021   0.000017   0.373687   0.424628  -0.027722  -0.001948
    23  C    0.000003   0.000002   0.554351  -0.027722   4.938099   0.381736
    24  H    0.000000   0.000000  -0.019250  -0.001948   0.381736   0.475429
    25  C    0.000000   0.000000  -0.000009   0.000000   0.000129   0.000090
    26  O    0.000000   0.000000   0.000000   0.000000  -0.000010   0.000000
    27  N    0.000000   0.000000  -0.000056   0.000000  -0.000814  -0.000004
    28  H    0.000000   0.000000   0.000389   0.000000   0.003091   0.000016
    29  C    0.000000   0.000000  -0.000002   0.000000   0.000008   0.000000
    30  H    0.000000   0.000000  -0.000002   0.000000  -0.000002   0.000000
    31  H    0.000000   0.000000   0.000000   0.000000   0.000000   0.000000
    32  H    0.000000   0.000000   0.000000   0.000000   0.000000   0.000000
              25         26         27         28         29         30
     1  N   -0.050916   0.000763   0.001553   0.000090  -0.000071  -0.000002
     2  H    0.003522   0.000208  -0.000028  -0.000001   0.000001   0.000000
     3  H   -0.000403   0.003670   0.000118  -0.000012  -0.000012   0.000000
     4  H   -0.001542   0.007923   0.000288  -0.000010  -0.000004   0.000000
     5  C    0.317276  -0.087310  -0.115019   0.000946   0.003881  -0.000110
     6  H   -0.037809   0.001790   0.006461   0.000830  -0.000036   0.000008
     7  C   -0.041582  -0.001073  -0.001343  -0.000978  -0.000111   0.000050
     8  H    0.004737  -0.000071  -0.000118   0.000047   0.000003   0.000000
     9  H   -0.003619   0.002314   0.000366  -0.000003  -0.000003   0.000009
    10  C   -0.002574  -0.000259  -0.001678   0.004247   0.000112   0.000040
    11  C    0.001190   0.000013  -0.000358   0.000016  -0.000014   0.000310
    12  H    0.000134   0.000026  -0.000041   0.000004   0.000018   0.000076
    13  C    0.000029   0.000001   0.000012  -0.000245   0.000009   0.000065
    14  H    0.000001   0.000000  -0.000001   0.000002   0.000000   0.000001
    15  C    0.000004   0.000000   0.000003  -0.000031  -0.000002   0.000000
    16  O    0.000000   0.000000   0.000000   0.000000   0.000000   0.000000
    17  C    0.000000   0.000000   0.000000   0.000000   0.000000   0.000000
    18  H    0.000000   0.000000   0.000000   0.000000   0.000000   0.000000
    19  H    0.000000   0.000000   0.000000   0.000000   0.000000   0.000000
    20  H    0.000000   0.000000   0.000000   0.000000   0.000000   0.000000
    21  C   -0.000009   0.000000  -0.000056   0.000389  -0.000002  -0.000002
    22  H    0.000000   0.000000   0.000000   0.000000   0.000000   0.000000
    23  C    0.000129  -0.000010  -0.000814   0.003091   0.000008  -0.000002
    24  H    0.000090   0.000000  -0.000004   0.000016   0.000000   0.000000
    25  C    4.162926   0.595892   0.328718  -0.022453  -0.034590  -0.002739
    26  O    0.595892   8.177389  -0.103764   0.002274   0.004311   0.001103
    27  N    0.328718  -0.103764   7.282937   0.319407   0.178416  -0.045932
    28  H   -0.022453   0.002274   0.319407   0.301587  -0.018251   0.000905
    29  C   -0.034590   0.004311   0.178416  -0.018251   4.956579   0.405194
    30  H   -0.002739   0.001103  -0.045932   0.000905   0.405194   0.498557
    31  H   -0.004271   0.002951  -0.036313   0.002341   0.402284  -0.028863
    32  H    0.004397   0.000279  -0.034906  -0.004218   0.398045  -0.028361
              31         32
     1  N    0.000006   0.000001
     2  H    0.000000   0.000000
     3  H    0.000001   0.000000
     4  H   -0.000001   0.000000
     5  C    0.000064  -0.000016
     6  H   -0.000016  -0.000015
     7  C   -0.000012  -0.000003
     8  H    0.000000   0.000000
     9  H   -0.000002   0.000000
    10  C   -0.000001  -0.000005
    11  C    0.000004  -0.000010
    12  H    0.000000  -0.000001
    13  C    0.000001   0.000000
    14  H    0.000000   0.000000
    15  C    0.000000   0.000000
    16  O    0.000000   0.000000
    17  C    0.000000   0.000000
    18  H    0.000000   0.000000
    19  H    0.000000   0.000000
    20  H    0.000000   0.000000
    21  C    0.000000   0.000000
    22  H    0.000000   0.000000
    23  C    0.000000   0.000000
    24  H    0.000000   0.000000
    25  C   -0.004271   0.004397
    26  O    0.002951   0.000279
    27  N   -0.036313  -0.034906
    28  H    0.002341  -0.004218
    29  C    0.402284   0.398045
    30  H   -0.028863  -0.028361
    31  H    0.460316  -0.021865
    32  H   -0.021865   0.483192
 Mulliken charges:
               1
     1  N   -0.875294
     2  H    0.466029
     3  H    0.481309
     4  H    0.485627
     5  C   -0.144263
     6  H    0.260819
     7  C   -0.366279
     8  H    0.208933
     9  H    0.230415
    10  C   -0.021794
    11  C   -0.200587
    12  H    0.224225
    13  C   -0.282757
    14  H    0.239674
    15  C    0.449978
    16  O   -0.641291
    17  C   -0.203861
    18  H    0.167369
    19  H    0.215898
    20  H    0.174750
    21  C   -0.239756
    22  H    0.248492
    23  C   -0.218767
    24  H    0.203186
    25  C    0.783463
    26  O   -0.608421
    27  N   -0.777900
    28  H    0.410009
    29  C   -0.295765
    30  H    0.199696
    31  H    0.223377
    32  H    0.203486
 Sum of Mulliken charges =   1.00000
 Mulliken charges with hydrogens summed into heavy atoms:
               1
     1  N    0.557670
     5  C    0.116556
     7  C    0.073069
    10  C   -0.021794
    11  C    0.023637
    13  C   -0.043082
    15  C    0.449978
    16  O   -0.641291
    17  C    0.354156
    21  C    0.008736
    23  C   -0.015581
    25  C    0.783463
    26  O   -0.608421
    27  N   -0.367891
    29  C    0.330795
 Electronic spatial extent (au):  <R**2>=           4105.0000
 Charge=              1.0000 electrons
 Dipole moment (field-independent basis, Debye):
    X=              9.4361    Y=             -4.5751    Z=             -1.6270  Tot=             10.6122
 Quadrupole moment (field-independent basis, Debye-Ang):
   XX=            -31.5397   YY=            -68.4776   ZZ=            -82.4750
   XY=            -31.9805   XZ=            -11.2347   YZ=              1.2503
 Traceless Quadrupole moment (field-independent basis, Debye-Ang):
   XX=             29.2911   YY=             -7.6469   ZZ=            -21.6442
   XY=            -31.9805   XZ=            -11.2347   YZ=              1.2503
 Octapole moment (field-independent basis, Debye-Ang**2):
  XXX=            116.4276  YYY=              1.1117  ZZZ=             -1.0680  XYY=             51.7235
  XXY=            -74.8133  XXZ=             -9.3951  XZZ=             11.2341  YZZ=             -3.7976
  YYZ=            -14.4362  XYZ=            -12.9332
 Hexadecapole moment (field-independent basis, Debye-Ang**3):
 XXXX=          -2630.9251 YYYY=           -888.5961 ZZZZ=           -355.7330 XXXY=           -567.9552
 XXXZ=           -176.0925 YYYX=            -88.2172 YYYZ=              2.4327 ZZZX=             13.3251
 ZZZY=             11.5643 XXYY=           -628.1535 XXZZ=           -662.8875 YYZZ=           -218.5604
 XXYZ=              6.1744 YYXZ=            -11.0477 ZZXY=            -26.0885
 N-N= 1.010765148397D+03 E-N=-3.607349100517D+03  KE= 6.835763724789D+02
 Calling FoFJK, ICntrl=      2127 FMM=F ISym2X=0 I1Cent= 0 IOpClX= 0 NMat=1 NMatS=1 NMatT=0.
 ***** Axes restored to original set *****
 -------------------------------------------------------------------
 Center     Atomic                   Forces (Hartrees/Bohr)
 Number     Number              X              Y              Z
 -------------------------------------------------------------------
      1        7           0.004409520    0.008673961    0.009377755
      2        1           0.002123763    0.004659398   -0.047178106
      3        1          -0.043653033    0.006840910    0.016011614
      4        1           0.026616855   -0.035255368    0.012508775
      5        6          -0.003313455   -0.004792193   -0.005664436
      6        1           0.005535803    0.005821180    0.003783864
      7        6           0.003669319    0.010102127    0.003996989
      8        1          -0.003445530    0.001015511    0.003526494
      9        1          -0.000386653   -0.000154317    0.000135422
     10        6           0.003118492   -0.005239184   -0.000649677
     11        6          -0.000816597    0.002034009   -0.002450300
     12        1          -0.000617391   -0.000348741   -0.000379313
     13        6           0.000759230    0.004019417   -0.001031637
     14        1           0.000465868    0.000425143    0.000671654
     15        6          -0.005887256   -0.011153446   -0.001380826
     16        8           0.008867826    0.012357723    0.004602351
     17        6          -0.005002780   -0.001909517   -0.004839225
     18        1           0.000333490   -0.000325463    0.000599800
     19        1           0.000447450    0.000813247    0.000123201
     20        1           0.000428486   -0.000392499    0.000573364
     21        6           0.003185886    0.000926636    0.003277606
     22        1          -0.000137743    0.000491187   -0.000191963
     23        6           0.000113528   -0.000138591   -0.000436223
     24        1          -0.000319496   -0.001710599    0.001380932
     25        6           0.004323226   -0.007143033   -0.023142249
     26        8           0.000433934    0.003249796    0.016121502
     27        7          -0.001618806    0.009548387    0.016371679
     28        1          -0.000403493   -0.002433428   -0.000386451
     29        6           0.000298617   -0.000586911   -0.008200618
     30        1           0.000594572   -0.000046086    0.001475607
     31        1          -0.000077748   -0.000404884    0.000279672
     32        1          -0.000045884    0.001055628    0.001112744
 -------------------------------------------------------------------
 Cartesian Forces:  Max     0.047178106 RMS     0.009646116
 -----------------------------------------------------------------------------------------------
                       Internal Coordinate Forces (Hartree/Bohr or radian)
  Cent   Atom   N1       Length/X         N2         Alpha/Y        N3         Beta/Z          J
 -----------------------------------------------------------------------------------------------
      1  N 
      2  H        1  -0.047178(     1)
      3  H        1  -0.046494(     2)      2  -0.009015(    32)
      4  H        1  -0.045503(     3)      3  -0.012348(    33)      2  -0.000513(    62)     0
      5  C        1  -0.020358(     4)      3  -0.000241(    34)      2  -0.005800(    63)     0
      6  H        5  -0.000718(     5)      1   0.009774(    35)      2  -0.005139(    64)     0
      7  C        5  -0.002675(     6)      1  -0.003181(    36)      6   0.011555(    65)     0
      8  H        7   0.003854(     7)      5   0.006604(    37)      6   0.000529(    66)     0
      9  H        7  -0.000020(     8)      5   0.000886(    38)      6   0.000133(    67)     0
     10  C        7  -0.002245(     9)      5  -0.009335(    39)      6  -0.031441(    68)     0
     11  C       10  -0.002105(    10)      7  -0.005177(    40)      5   0.000340(    69)     0
     12  H       11   0.000070(    11)     10   0.001606(    41)      7  -0.000240(    70)     0
     13  C       11  -0.005061(    12)     10  -0.006229(    42)      7   0.001682(    71)     0
     14  H       13  -0.000838(    13)     11  -0.000687(    43)     10  -0.000312(    72)     0
     15  C       13   0.003372(    14)     11   0.000273(    44)     10   0.001960(    73)     0
     16  O       15  -0.011748(    15)     13   0.002719(    45)     11  -0.000006(    74)     0
     17  C       16   0.005387(    16)     15   0.003003(    46)     13  -0.000197(    75)     0
     18  H       17  -0.000444(    17)     16  -0.000990(    47)     15   0.000731(    76)     0
     19  H       17  -0.000897(    18)     16  -0.000550(    48)     15  -0.000006(    77)     0
     20  H       17  -0.000524(    19)     16  -0.001001(    49)     15  -0.000746(    78)     0
     21  C       15   0.004855(    20)     13   0.010134(    50)     11   0.001564(    79)     0
     22  H       21  -0.000522(    21)     15   0.000140(    51)     13  -0.000254(    80)     0
     23  C       21  -0.001550(    22)     15   0.007734(    52)     13   0.000410(    81)     0
     24  H       23   0.000739(    23)     21  -0.004132(    53)     15  -0.000916(    82)     0
     25  C        5  -0.003215(    24)      7   0.015727(    54)     10   0.029974(    83)     0
     26  O       25  -0.005804(    25)      5  -0.034566(    55)      7   0.005105(    84)     0
     27  N       25  -0.010897(    26)      5  -0.013415(    56)      7  -0.000161(    85)     0
     28  H       27   0.001784(    27)     25   0.003246(    57)      5   0.000423(    86)     0
     29  C       27   0.005309(    28)     25  -0.000764(    58)      5   0.000299(    87)     0
     30  H       29  -0.001170(    29)     27  -0.002210(    59)     25  -0.000098(    88)     0
     31  H       29  -0.000409(    30)     27  -0.000196(    60)     25   0.000515(    89)     0
     32  H       29  -0.001226(    31)     27  -0.001829(    61)     25  -0.000432(    90)     0
 -----------------------------------------------------------------------------------------------
 Internal  Forces:  Max     0.047178106 RMS     0.011466564

 GradGradGradGradGradGradGradGradGradGradGradGradGradGradGradGradGradGrad
 Berny optimization.
 Search for a local minimum.
 Step number   1 out of a maximum of   94
 All quantities printed in internal units (Hartrees-Bohrs-Radians)
 Second derivative matrix not updated -- first step.
 ITU=  0
     Eigenvalues ---    0.00515   0.01185   0.01699   0.01708   0.02749
     Eigenvalues ---    0.03237   0.03277   0.03824   0.04393   0.06618
     Eigenvalues ---    0.09398   0.10253   0.11108   0.13279   0.13531
     Eigenvalues ---    0.13973   0.14148   0.15613   0.17756   0.17939
     Eigenvalues ---    0.19944   0.20098   0.20754   0.20875   0.22173
     Eigenvalues ---    0.22424   0.23516   0.24264   0.25000   0.25000
     Eigenvalues ---    0.27028   0.27841   0.29725   0.30254   0.31033
     Eigenvalues ---    0.31695   0.32662   0.32670   0.32735   0.33071
     Eigenvalues ---    0.35378   0.35385   0.35405   0.35408   0.35640
     Eigenvalues ---    0.35793   0.35817   0.35928   0.36039   0.36043
     Eigenvalues ---    0.36375   0.36429   0.36703   0.36822   0.36885
     Eigenvalues ---    0.37230   0.37230   0.37230   0.38551   0.40073
     Eigenvalues ---    0.40093   0.40095   0.40232   0.40378   0.41536
     Eigenvalues ---    0.43246   0.45818   0.47071   0.47454   0.48720
     Eigenvalues ---    0.48763   0.50052   0.50595   0.51892   0.55289
     Eigenvalues ---    0.56475   0.62799   0.69438   0.75000   0.87014
     Eigenvalues ---    1.02028   2.09370   3.13749  25.96545
 RFO step:  Lambda=-2.63026276D-02 EMin= 5.15342396D-03
 Linear search not attempted -- first point.
 Variable       Old X    -DE/DX   Delta X   Delta X   Delta X     New X
                                 (Linear)    (Quad)   (Total)
    B1        2.02201  -0.04718   0.00000  -0.11836  -0.11836   1.90365
    B2        2.02201  -0.04649   0.00000  -0.11664  -0.11664   1.90537
    B3        2.02201  -0.04550   0.00000  -0.11416  -0.11416   1.90785
    B4        2.04369  -0.00072   0.00000  -0.00187  -0.00187   2.04182
    B5        2.92488  -0.00267   0.00000  -0.00878  -0.00878   2.91610
    B6        2.04649   0.00385   0.00000   0.01007   0.01007   2.05656
    B7        2.05055  -0.00002   0.00000  -0.00005  -0.00005   2.05049
    B8        2.85950  -0.00224   0.00000  -0.00667  -0.00667   2.85283
    B9        2.61240  -0.00211   0.00000   0.00064   0.00064   2.61304
   B10        2.03416   0.00007   0.00000   0.00018   0.00018   2.03434
   B11        2.63063  -0.00506   0.00000  -0.00663  -0.00663   2.62400
   B12        2.02720  -0.00084   0.00000  -0.00212  -0.00212   2.02508
   B13        2.61525   0.00337   0.00000   0.00533   0.00533   2.62057
   B14        2.54876  -0.01175   0.00000  -0.02028  -0.02028   2.52848
   B15        2.64337   0.00539   0.00000   0.01112   0.01112   2.65449
   B16        2.05066  -0.00044   0.00000  -0.00117  -0.00117   2.04949
   B17        2.04014  -0.00090   0.00000  -0.00232  -0.00232   2.03782
   B18        2.05018  -0.00052   0.00000  -0.00138  -0.00138   2.04880
   B19        2.63485   0.00485   0.00000   0.00494   0.00494   2.63978
   B20        2.02996  -0.00052   0.00000  -0.00133  -0.00133   2.02863
   B21        2.60141  -0.00155   0.00000  -0.00630  -0.00630   2.59510
   B22        2.03500   0.00074   0.00000   0.00189   0.00189   2.03689
   B23        2.88515  -0.00322   0.00000  -0.00994  -0.00994   2.87522
   B24        2.27837  -0.00580   0.00000  -0.00555  -0.00555   2.27283
   B25        2.53844  -0.01090   0.00000  -0.01844  -0.01844   2.52000
   B26        1.87879   0.00178   0.00000   0.00347   0.00347   1.88227
   B27        2.73570   0.00531   0.00000   0.01289   0.01289   2.74860
   B28        2.05023  -0.00117   0.00000  -0.00308  -0.00308   2.04715
   B29        2.04020  -0.00041   0.00000  -0.00106  -0.00106   2.03915
   B30        2.04407  -0.00123   0.00000  -0.00319  -0.00319   2.04088
    A1        1.91063  -0.00901   0.00000  -0.02740  -0.02740   1.88323
    A2        1.91063  -0.01235   0.00000  -0.04013  -0.04013   1.87051
    A3        1.94251  -0.00318   0.00000  -0.06391  -0.06391   1.87861
    A4        1.85576   0.00660   0.00000   0.03742   0.03742   1.89318
    A5        1.89253   0.00089   0.00000   0.00096   0.00096   1.89349
    A6        1.99643  -0.00934   0.00000  -0.03361  -0.03361   1.96281
    A7        2.13060  -0.00518   0.00000  -0.01593  -0.01593   2.11467
    A8        2.08733   0.00161   0.00000   0.00850   0.00850   2.09582
    A9        2.12784  -0.00623   0.00000  -0.00836  -0.00836   2.11948
   A10        2.07885  -0.00069   0.00000  -0.00186  -0.00186   2.07699
   A11        2.08758   0.00027   0.00000  -0.00028  -0.00028   2.08729
   A12        2.17824   0.00272   0.00000   0.00302   0.00302   2.18126
   A13        2.08947   0.00300   0.00000   0.01087   0.01087   2.10034
   A14        1.94544  -0.00099   0.00000  -0.00230  -0.00230   1.94315
   A15        1.85439  -0.00055   0.00000  -0.00241  -0.00241   1.85199
   A16        1.94487  -0.00100   0.00000  -0.00236  -0.00236   1.94250
   A17        2.08276   0.01013   0.00000   0.00452   0.00452   2.08728
   A18        2.06942   0.00014   0.00000   0.00160   0.00160   2.07102
   A19        2.09815   0.00773   0.00000  -0.00262  -0.00262   2.09553
   A20        2.08038  -0.00413   0.00000  -0.00912  -0.00912   2.07126
   A21        1.94161   0.01573   0.00000   0.04088   0.04088   1.98249
   A22        2.10776  -0.03457   0.00000  -0.06919  -0.06919   2.03857
   A23        2.02712  -0.01342   0.00000   0.00736   0.00736   2.03448
   A24        2.06318   0.00325   0.00000   0.01249   0.01249   2.07567
   A25        2.12216  -0.00076   0.00000  -0.00601  -0.00601   2.11614
   A26        1.95293  -0.00221   0.00000  -0.00720  -0.00720   1.94573
   A27        1.91246  -0.00020   0.00000   0.00205   0.00205   1.91451
   A28        1.89701  -0.00183   0.00000  -0.00664  -0.00664   1.89037
    D1        2.09440  -0.00051   0.00000  -0.01053  -0.01053   2.08387
    D2        1.22797   0.00053   0.00000  -0.04037  -0.04037   1.18760
    D3       -3.04538   0.00013   0.00000  -0.02441  -0.02441  -3.06979
    D4       -0.88479  -0.03144   0.00000  -0.05618  -0.05618  -0.94097
    D5       -1.87162   0.00034   0.00000   0.01343   0.01343  -1.85819
    D6       -0.01038  -0.00024   0.00000   0.00484   0.00484  -0.00554
    D7        3.13355   0.00168   0.00000   0.00957   0.00957   3.14312
    D8        3.13729  -0.00031   0.00000  -0.00254  -0.00254   3.13475
    D9       -0.00091   0.00196   0.00000   0.00013   0.00013  -0.00078
   D10       -3.13905  -0.00001   0.00000  -0.00009  -0.00009  -3.13915
   D11       -0.03571  -0.00020   0.00000  -0.00229  -0.00229  -0.03800
   D12        1.08889   0.00073   0.00000   0.00189   0.00189   1.09078
   D13       -3.12142  -0.00001   0.00000  -0.00015  -0.00015  -3.12157
   D14       -1.04753  -0.00075   0.00000  -0.00224  -0.00224  -1.04977
   D15        0.00274   0.00156   0.00000   0.00113   0.00113   0.00387
   D16        3.13068  -0.00025   0.00000  -0.00349  -0.00349   3.12719
   D17        0.00137   0.00041   0.00000  -0.00017  -0.00017   0.00119
   D18        3.12337  -0.00092   0.00000  -0.00848  -0.00848   3.11489
   D19        1.23592   0.02997   0.00000   0.08079   0.08079   1.31671
   D20        1.59083   0.00510   0.00000   0.05843   0.05843   1.64926
   D21       -1.55176  -0.00016   0.00000   0.02341   0.02341  -1.52835
   D22        0.16657   0.00042   0.00000   0.01549   0.01549   0.18206
   D23        3.02042   0.00030   0.00000   0.01749   0.01749   3.03791
   D24       -1.28025  -0.00010   0.00000  -0.00307  -0.00307  -1.28331
   D25        0.82230   0.00052   0.00000   0.00016   0.00016   0.82246
   D26        2.90134  -0.00043   0.00000  -0.00069  -0.00069   2.90066
         Item               Value     Threshold  Converged?
 Maximum Force            0.047178     0.000450     NO 
 RMS     Force            0.011511     0.000300     NO 
 Maximum Displacement     0.118358     0.001800     NO 
 RMS     Displacement     0.030001     0.001200     NO 
 Predicted change in Energy=-1.414564D-02
 GradGradGradGradGradGradGradGradGradGradGradGradGradGradGradGradGradGrad

 ---------------------------------------------------------------------------------------------------
                            Z-MATRIX (ANGSTROMS AND DEGREES)
   CD    Cent   Atom    N1       Length/X        N2       Alpha/Y        N3        Beta/Z          J
 ---------------------------------------------------------------------------------------------------
      1      1  N 
      2      2  H        1   1.007367(     1)
      3      3  H        1   1.008276(     2)      2  107.901(    32)
      4      4  H        1   1.009592(     3)      3  107.172(    33)      2  119.397(    62)      0
      5      5  C        1   1.540000(     4)      3  109.471(    34)      2 -120.000(    63)      0
      6      6  H        5   1.080484(     5)      1  108.234(    35)      2  -53.040(    64)      0
      7      7  C        5   1.543133(     6)      1  107.636(    36)      6  119.690(    65)      0
      8      8  H        7   1.088285(     7)      5  108.471(    37)      6   68.044(    66)      0
      9      9  H        7   1.085074(     8)      5  108.489(    38)      6 -175.886(    67)      0
     10     10  C        7   1.509651(     9)      5  112.461(    39)      6  -53.914(    68)      0
     11     11  C       10   1.382762(    10)      7  121.161(    40)      5 -106.466(    69)      0
     12     12  H       11   1.076525(    11)     10  120.082(    41)      7   -0.317(    70)      0
     13     13  C       11   1.388562(    12)     10  121.437(    42)      7  180.087(    71)      0
     14     14  H       13   1.071626(    13)     11  119.003(    43)     10  179.608(    72)      0
     15     15  C       13   1.386749(    14)     11  119.593(    44)     10   -0.045(    73)      0
     16     16  O       15   1.338013(    15)     13  124.977(    45)     11 -179.860(    74)      0
     17     17  C       16   1.404698(    16)     15  120.341(    46)     13   -2.177(    75)      0
     18     18  H       17   1.084543(    17)     16  111.334(    47)     15   62.497(    76)      0
     19     19  H       17   1.078369(    18)     16  106.111(    48)     15 -178.853(    77)      0
     20     20  H       17   1.084176(    19)     16  111.297(    49)     15  -60.148(    78)      0
     21     21  C       15   1.396913(    20)     13  119.592(    50)     11    0.222(    79)      0
     22     22  H       21   1.073506(    21)     15  118.661(    51)     13  179.175(    80)      0
     23     23  C       21   1.373270(    22)     15  120.065(    52)     13    0.068(    81)      0
     24     24  H       23   1.077876(    23)     21  118.674(    53)     15  178.470(    82)      0
     25     25  C        5   1.521498(    24)      7  113.588(    54)     10   75.442(    83)      0
     26     26  O       25   1.202730(    25)      5  116.802(    55)      7   94.496(    84)      0
     27     27  N       25   1.333528(    26)      5  116.567(    56)      7  -87.568(    85)      0
     28     28  H       27   0.996054(    27)     25  118.927(    57)      5   10.431(    86)      0
     29     29  C       27   1.454494(    28)     25  121.246(    58)      5  174.059(    87)      0
     30     30  H       29   1.083305(    29)     27  111.482(    59)     25  -73.528(    88)      0
     31     31  H       29   1.079069(    30)     27  109.693(    60)     25   47.124(    89)      0
     32     32  H       29   1.079985(    31)     27  108.310(    61)     25  166.195(    90)      0
 ---------------------------------------------------------------------------------------------------
                         Z-Matrix orientation:                         
 ---------------------------------------------------------------------
 Center     Atomic      Atomic             Coordinates (Angstroms)
 Number     Number       Type             X           Y           Z
 ---------------------------------------------------------------------
      1          7           0        0.000000    0.000000    0.000000
      2          1           0        0.000000    0.000000    1.007367
      3          1           0        0.959463    0.000000   -0.309921
      4          1           0       -0.429178    0.840388   -0.358927
      5          6           0       -0.711626   -1.257405   -0.533031
      6          1           0       -0.259394   -2.123204   -0.071161
      7          6           0       -2.202070   -1.149705   -0.148019
      8          1           0       -2.268144   -0.916634    0.912961
      9          1           0       -2.637148   -0.314339   -0.686773
     10          6           0       -2.968352   -2.415181   -0.448734
     11          6           0       -3.851424   -2.481670   -1.510710
     12          1           0       -4.007027   -1.620607   -2.137817
     13          6           0       -4.560510   -3.642062   -1.791413
     14          1           0       -5.239537   -3.648334   -2.620429
     15          6           0       -4.383371   -4.762695   -0.993995
     16          8           0       -5.006792   -5.933821   -1.167457
     17          6           0       -5.955322   -6.087824   -2.192029
     18          1           0       -5.506191   -5.949850   -3.169515
     19          1           0       -6.322212   -7.098596   -2.110712
     20          1           0       -6.782149   -5.397196   -2.070255
     21          6           0       -3.497263   -4.708795    0.084556
     22          1           0       -3.381677   -5.580721    0.700023
     23          6           0       -2.808349   -3.551273    0.351781
     24          1           0       -2.149291   -3.526745    1.204340
     25          6           0       -0.461256   -1.162007   -2.030753
     26          8           0       -0.190879   -0.074363   -2.467198
     27          7           0       -0.522489   -2.302256   -2.719506
     28          1           0       -0.876293   -3.117934   -2.270490
     29          6           0       -0.426954   -2.313092   -4.170819
     30          1           0       -1.334497   -1.941315   -4.630926
     31          1           0        0.401239   -1.696999   -4.485329
     32          1           0       -0.254777   -3.329759   -4.491926
 ---------------------------------------------------------------------
                    Distance matrix (angstroms):
                    1          2          3          4          5
     1  N    0.000000
     2  H    1.007367   0.000000
     3  H    1.008276   1.629668   0.000000
     4  H    1.009592   1.660484   1.623878   0.000000
     5  C    1.540000   2.111943   2.103184   2.123870   0.000000
     6  H    2.140174   2.395518   2.459800   2.982367   1.080484
     7  C    2.488543   2.739681   3.367986   2.673593   1.543133
     8  H    2.611167   2.448185   3.571149   2.843699   2.151689
     9  H    2.743176   3.150154   3.629937   2.513167   2.149569
[...]
 Alpha virt. eigenvalues --    2.66956   2.67111   2.74822   2.77722   2.80403
 Alpha virt. eigenvalues --    2.81996   2.86592   2.89156   2.90596   2.92197
 Alpha virt. eigenvalues --    2.93174   2.95070   2.95143   3.03456   3.06833
 Alpha virt. eigenvalues --    3.13311   3.16737   3.20921   3.24741   3.25753
 Alpha virt. eigenvalues --    3.41947   3.49666   3.72545   4.02769   4.26602
 Alpha virt. eigenvalues --    4.34468   4.37865   4.43314   4.47554   4.54211
 Alpha virt. eigenvalues --    4.57930   4.58974   4.65220   4.70409   4.74778
 Alpha virt. eigenvalues --    4.83948   4.86169   5.09208
          Condensed to atoms (all electrons):
               1          2          3          4          5          6
     1  N    6.940903   0.306183   0.300691   0.300961   0.153809  -0.029731
     2  H    0.306183   0.267564  -0.008316  -0.007480  -0.019868  -0.001298
     3  H    0.300691  -0.008316   0.245402  -0.009147  -0.018566  -0.001496
     4  H    0.300961  -0.007480  -0.009147   0.248556  -0.015753   0.002321
     5  C    0.153809  -0.019868  -0.018566  -0.015753   5.432605   0.391227
     6  H   -0.029731  -0.001298  -0.001496   0.002321   0.391227   0.419578
     7  C   -0.060480   0.000283   0.003046  -0.001083   0.275765  -0.033097
     8  H   -0.001103   0.002521  -0.000050  -0.000166  -0.057402  -0.001848
     9  H   -0.001116  -0.000058  -0.000133   0.002526  -0.040968   0.003000
    10  C    0.002797  -0.000128  -0.000067   0.000014  -0.048674   0.000671
    11  C   -0.000030  -0.000001   0.000001   0.000005  -0.001921   0.000368
    12  H   -0.000007   0.000000   0.000000   0.000000  -0.000006   0.000002
    13  C    0.000000   0.000000   0.000000   0.000000  -0.000089  -0.000013
    14  H    0.000000   0.000000   0.000000   0.000000   0.000001   0.000000
    15  C    0.000000   0.000000   0.000000   0.000000   0.000000  -0.000001
    16  O    0.000000   0.000000   0.000000   0.000000   0.000000   0.000000
    17  C    0.000000   0.000000   0.000000   0.000000   0.000000   0.000000
    18  H    0.000000   0.000000   0.000000   0.000000   0.000000   0.000000
    19  H    0.000000   0.000000   0.000000   0.000000   0.000000   0.000000
    20  H    0.000000   0.000000   0.000000   0.000000   0.000000   0.000000
    21  C    0.000001   0.000000   0.000000   0.000000   0.000059  -0.000013
    22  H    0.000000   0.000000   0.000000   0.000000   0.000000   0.000004
    23  C   -0.000014   0.000025   0.000001  -0.000004  -0.004351   0.001591
    24  H   -0.000048   0.000008   0.000002  -0.000001  -0.000226   0.000987
    25  C   -0.055509   0.003480  -0.000265  -0.001121   0.339731  -0.027786
    26  O   -0.013878   0.000998   0.011728   0.007789  -0.095570   0.001032
    27  N    0.002551  -0.000008   0.000229   0.000222  -0.126757   0.003302
    28  H    0.000083  -0.000003  -0.000019  -0.000006  -0.000681   0.000551
    29  C   -0.000073   0.000001  -0.000013  -0.000004   0.004010  -0.000084
    30  H    0.000001   0.000000  -0.000001   0.000001  -0.000037   0.000001
    31  H   -0.000003   0.000000   0.000006  -0.000001   0.000038  -0.000006
    32  H    0.000000   0.000000   0.000000   0.000000  -0.000020  -0.000003
               7          8          9         10         11         12
     1  N   -0.060480  -0.001103  -0.001116   0.002797  -0.000030  -0.000007
     2  H    0.000283   0.002521  -0.000058  -0.000128  -0.000001   0.000000
     3  H    0.003046  -0.000050  -0.000133  -0.000067   0.000001   0.000000
     4  H   -0.001083  -0.000166   0.002526   0.000014   0.000005   0.000000
     5  C    0.275765  -0.057402  -0.040968  -0.048674  -0.001921  -0.000006
     6  H   -0.033097  -0.001848   0.003000   0.000671   0.000368   0.000002
     7  C    5.164284   0.403350   0.400587   0.330223  -0.036924  -0.002685
     8  H    0.403350   0.492548  -0.021404  -0.034063  -0.000435   0.000030
     9  H    0.400587  -0.021404   0.465252  -0.035479   0.001620   0.002618
    10  C    0.330223  -0.034063  -0.035479   4.917692   0.577357  -0.034319
    11  C   -0.036924  -0.000435   0.001620   0.577357   4.900240   0.379929
    12  H   -0.002685   0.000030   0.002618  -0.034319   0.379929   0.450399
    13  C    0.003668  -0.000037   0.000201  -0.053480   0.501795  -0.021383
    14  H   -0.000122   0.000002  -0.000008   0.001897  -0.025957  -0.001300
    15  C    0.000227   0.000018  -0.000008  -0.024167  -0.025248   0.000957
    16  O    0.000000   0.000000   0.000000   0.000113   0.003774  -0.000038
    17  C    0.000000   0.000000   0.000000   0.000019  -0.000360  -0.000006
    18  H    0.000000   0.000000   0.000000  -0.000001  -0.000220   0.000000
    19  H    0.000000   0.000000   0.000000   0.000000   0.000014   0.000000
    20  H    0.000000   0.000000   0.000000  -0.000005  -0.000193   0.000001
    21  C    0.002360   0.000066  -0.000011  -0.050214  -0.033501   0.000250
    22  H   -0.000107  -0.000005   0.000002   0.002122  -0.000071   0.000010
    23  C   -0.053562   0.000079   0.002032   0.532599  -0.040476   0.002587
    24  H   -0.001301   0.001301  -0.000013  -0.043464   0.002541  -0.000118
    25  C   -0.036222   0.003625  -0.002833  -0.003906   0.000902   0.000048
    26  O   -0.000540  -0.000080   0.000744   0.000010   0.000000  -0.000004
    27  N    0.005029  -0.000103   0.000347  -0.005548  -0.001415   0.000208
    28  H   -0.001565   0.000079   0.000068   0.009622   0.003293  -0.000020
    29  C   -0.000168   0.000003  -0.000012   0.000268   0.000086   0.000004
    30  H   -0.000011   0.000000   0.000005   0.000020   0.000013   0.000012
    31  H   -0.000001   0.000000  -0.000001  -0.000005   0.000001   0.000000
    32  H    0.000000   0.000000   0.000000  -0.000008   0.000003   0.000000
              13         14         15         16         17         18
     1  N    0.000000   0.000000   0.000000   0.000000   0.000000   0.000000
     2  H    0.000000   0.000000   0.000000   0.000000   0.000000   0.000000
     3  H    0.000000   0.000000   0.000000   0.000000   0.000000   0.000000
     4  H    0.000000   0.000000   0.000000   0.000000   0.000000   0.000000
     5  C   -0.000089   0.000001   0.000000   0.000000   0.000000   0.000000
     6  H   -0.000013   0.000000  -0.000001   0.000000   0.000000   0.000000
     7  C    0.003668  -0.000122   0.000227   0.000000   0.000000   0.000000
     8  H   -0.000037   0.000002   0.000018   0.000000   0.000000   0.000000
     9  H    0.000201  -0.000008  -0.000008   0.000000   0.000000   0.000000
    10  C   -0.053480   0.001897  -0.024167   0.000113   0.000019  -0.000001
    11  C    0.501795  -0.025957  -0.025248   0.003774  -0.000360  -0.000220
    12  H   -0.021383  -0.001300   0.000957  -0.000038  -0.000006   0.000000
    13  C    5.084536   0.379700   0.539770  -0.055731  -0.006892   0.000925
    14  H    0.379700   0.432454  -0.025546  -0.004216   0.002327   0.000081
    15  C    0.539770  -0.025546   4.335546   0.277380  -0.041059  -0.001714
    16  O   -0.055731  -0.004216   0.277380   8.387328   0.186672  -0.037590
    17  C   -0.006892   0.002327  -0.041059   0.186672   4.873210   0.390112
    18  H    0.000925   0.000081  -0.001714  -0.037590   0.390112   0.545245
    19  H    0.000259   0.000008   0.002065  -0.031026   0.405242  -0.026364
    20  H    0.001041   0.000046  -0.001619  -0.036937   0.391150  -0.040915
    21  C   -0.057841   0.002242   0.573359  -0.053500   0.002756  -0.000052
    22  H    0.004007  -0.000090  -0.024076   0.001145  -0.000101   0.000017
    23  C   -0.033009   0.000288  -0.040692   0.002337  -0.000099  -0.000002
    24  H    0.000075   0.000010   0.001937  -0.000054   0.000002   0.000000
    25  C    0.000048   0.000001   0.000004   0.000000   0.000000   0.000000
    26  O    0.000000   0.000000   0.000000   0.000000   0.000000   0.000000
    27  N   -0.000114  -0.000005   0.000020   0.000000   0.000000   0.000000
    28  H   -0.000074   0.000007  -0.000089   0.000000   0.000000   0.000000
    29  C   -0.000008   0.000000  -0.000003   0.000000   0.000000   0.000000
    30  H    0.000004   0.000000   0.000000   0.000000   0.000000   0.000000
    31  H    0.000000   0.000000   0.000000   0.000000   0.000000   0.000000
    32  H    0.000001   0.000000   0.000000   0.000000   0.000000   0.000000
              19         20         21         22         23         24
     1  N    0.000000   0.000000   0.000001   0.000000  -0.000014  -0.000048
     2  H    0.000000   0.000000   0.000000   0.000000   0.000025   0.000008
     3  H    0.000000   0.000000   0.000000   0.000000   0.000001   0.000002
     4  H    0.000000   0.000000   0.000000   0.000000  -0.000004  -0.000001
     5  C    0.000000   0.000000   0.000059   0.000000  -0.004351  -0.000226
     6  H    0.000000   0.000000  -0.000013   0.000004   0.001591   0.000987
     7  C    0.000000   0.000000   0.002360  -0.000107  -0.053562  -0.001301
     8  H    0.000000   0.000000   0.000066  -0.000005   0.000079   0.001301
     9  H    0.000000   0.000000  -0.000011   0.000002   0.002032  -0.000013
    10  C    0.000000  -0.000005  -0.050214   0.002122   0.532599  -0.043464
    11  C    0.000014  -0.000193  -0.033501  -0.000071  -0.040476   0.002541
    12  H    0.000000   0.000001   0.000250   0.000010   0.002587  -0.000118
    13  C    0.000259   0.001041  -0.057841   0.004007  -0.033009   0.000075
    14  H    0.000008   0.000046   0.002242  -0.000090   0.000288   0.000010
    15  C    0.002065  -0.001619   0.573359  -0.024076  -0.040692   0.001937
    16  O   -0.031026  -0.036937  -0.053500   0.001145   0.002337  -0.000054
    17  C    0.405242   0.391150   0.002756  -0.000101  -0.000099   0.000002
    18  H   -0.026364  -0.040915  -0.000052   0.000017  -0.000002   0.000000
    19  H    0.456801  -0.025256  -0.000011  -0.000021   0.000003   0.000000
    20  H   -0.025256   0.534947  -0.000007   0.000016   0.000002   0.000000
    21  C   -0.000011  -0.000007   4.944090   0.373995   0.556414  -0.019063
    22  H   -0.000021   0.000016   0.373995   0.423841  -0.027570  -0.001987
    23  C    0.000003   0.000002   0.556414  -0.027570   4.926739   0.381292
    24  H    0.000000   0.000000  -0.019063  -0.001987   0.381292   0.471888
    25  C    0.000000   0.000000  -0.000007   0.000000   0.000113   0.000071
    26  O    0.000000   0.000000   0.000000   0.000000  -0.000005   0.000000
    27  N    0.000000   0.000000   0.000004   0.000000  -0.000641  -0.000006
    28  H    0.000000   0.000000  -0.000017   0.000001   0.001914   0.000025
    29  C    0.000000   0.000000  -0.000002   0.000000   0.000015   0.000000
    30  H    0.000000   0.000000   0.000000   0.000000   0.000000   0.000000
    31  H    0.000000   0.000000   0.000000   0.000000   0.000000   0.000000
    32  H    0.000000   0.000000   0.000000   0.000000   0.000000   0.000000
              25         26         27         28         29         30
     1  N   -0.055509  -0.013878   0.002551   0.000083  -0.000073   0.000001
     2  H    0.003480   0.000998  -0.000008  -0.000003   0.000001   0.000000
     3  H   -0.000265   0.011728   0.000229  -0.000019  -0.000013  -0.000001
     4  H   -0.001121   0.007789   0.000222  -0.000006  -0.000004   0.000001
     5  C    0.339731  -0.095570  -0.126757  -0.000681   0.004010  -0.000037
     6  H   -0.027786   0.001032   0.003302   0.000551  -0.000084   0.000001
     7  C   -0.036222  -0.000540   0.005029  -0.001565  -0.000168  -0.000011
     8  H    0.003625  -0.000080  -0.000103   0.000079   0.000003   0.000000
     9  H   -0.002833   0.000744   0.000347   0.000068  -0.000012   0.000005
    10  C   -0.003906   0.000010  -0.005548   0.009622   0.000268   0.000020
    11  C    0.000902   0.000000  -0.001415   0.003293   0.000086   0.000013
    12  H    0.000048  -0.000004   0.000208  -0.000020   0.000004   0.000012
    13  C    0.000048   0.000000  -0.000114  -0.000074  -0.000008   0.000004
    14  H    0.000001   0.000000  -0.000005   0.000007   0.000000   0.000000
    15  C    0.000004   0.000000   0.000020  -0.000089  -0.000003   0.000000
    16  O    0.000000   0.000000   0.000000   0.000000   0.000000   0.000000
    17  C    0.000000   0.000000   0.000000   0.000000   0.000000   0.000000
    18  H    0.000000   0.000000   0.000000   0.000000   0.000000   0.000000
    19  H    0.000000   0.000000   0.000000   0.000000   0.000000   0.000000
    20  H    0.000000   0.000000   0.000000   0.000000   0.000000   0.000000
    21  C   -0.000007   0.000000   0.000004  -0.000017  -0.000002   0.000000
    22  H    0.000000   0.000000   0.000000   0.000001   0.000000   0.000000
    23  C    0.000113  -0.000005  -0.000641   0.001914   0.000015   0.000000
    24  H    0.000071   0.000000  -0.000006   0.000025   0.000000   0.000000
    25  C    4.091654   0.592857   0.349080  -0.021665  -0.033315  -0.003697
    26  O    0.592857   8.206516  -0.095604   0.001965   0.004795   0.000893
    27  N    0.349080  -0.095604   7.289980   0.314934   0.171782  -0.043150
    28  H   -0.021665   0.001965   0.314934   0.281886  -0.016008   0.001277
    29  C   -0.033315   0.004795   0.171782  -0.016008   4.957461   0.404836
    30  H   -0.003697   0.000893  -0.043150   0.001277   0.404836   0.489798
    31  H   -0.003550   0.002713  -0.036988   0.001937   0.402779  -0.028172
    32  H    0.004578   0.000254  -0.034535  -0.004208   0.397925  -0.027258
              31         32
     1  N   -0.000003   0.000000
     2  H    0.000000   0.000000
     3  H    0.000006   0.000000
     4  H   -0.000001   0.000000
     5  C    0.000038  -0.000020
     6  H   -0.000006  -0.000003
     7  C   -0.000001   0.000000
     8  H    0.000000   0.000000
     9  H   -0.000001   0.000000
    10  C   -0.000005  -0.000008
    11  C    0.000001   0.000003
    12  H    0.000000   0.000000
    13  C    0.000000   0.000001
    14  H    0.000000   0.000000
    15  C    0.000000   0.000000
    16  O    0.000000   0.000000
    17  C    0.000000   0.000000
    18  H    0.000000   0.000000
    19  H    0.000000   0.000000
    20  H    0.000000   0.000000
    21  C    0.000000   0.000000
    22  H    0.000000   0.000000
    23  C    0.000000   0.000000
    24  H    0.000000   0.000000
    25  C   -0.003550   0.004578
    26  O    0.002713   0.000254
    27  N   -0.036988  -0.034535
    28  H    0.001937  -0.004208
    29  C    0.402779   0.397925
    30  H   -0.028172  -0.027258
    31  H    0.458901  -0.021855
    32  H   -0.021855   0.479893
 Mulliken charges:
               1
     1  N   -0.845989
     2  H    0.456098
     3  H    0.476967
     4  H    0.472371
     5  C   -0.166356
     6  H    0.270743
     7  C   -0.360953
     8  H    0.213073
     9  H    0.223040
    10  C   -0.041893
    11  C   -0.205191
    12  H    0.222831
    13  C   -0.287361
    14  H    0.238180
    15  C    0.452938
    16  O   -0.639657
    17  C   -0.202973
    18  H    0.170477
    19  H    0.218288
    20  H    0.177728
    21  C   -0.241357
    22  H    0.248867
    23  C   -0.207606
    24  H    0.206139
    25  C    0.803683
    26  O   -0.626616
    27  N   -0.792814
    28  H    0.426712
    29  C   -0.294275
    30  H    0.205464
    31  H    0.224207
    32  H    0.205234
 Sum of Mulliken charges =   1.00000
 Mulliken charges with hydrogens summed into heavy atoms:
               1
     1  N    0.559447
     5  C    0.104387
     7  C    0.075160
    10  C   -0.041893
    11  C    0.017640
    13  C   -0.049181
    15  C    0.452938
    16  O   -0.639657
    17  C    0.363520
    21  C    0.007510
    23  C   -0.001467
    25  C    0.803683
    26  O   -0.626616
    27  N   -0.366102
    29  C    0.340631
 Electronic spatial extent (au):  <R**2>=           4214.7412
 Charge=              1.0000 electrons
 Dipole moment (field-independent basis, Debye):
    X=              7.8192    Y=             -4.1576    Z=             -0.2630  Tot=              8.8597
 Quadrupole moment (field-independent basis, Debye-Ang):
   XX=            -39.2234   YY=            -65.8856   ZZ=            -82.1450
   XY=            -30.5154   XZ=             -7.0278   YZ=              2.1256
 Traceless Quadrupole moment (field-independent basis, Debye-Ang):
   XX=             23.1946   YY=             -3.4676   ZZ=            -19.7270
   XY=            -30.5154   XZ=             -7.0278   YZ=              2.1256
 Octapole moment (field-independent basis, Debye-Ang**2):
  XXX=             50.2494  YYY=              1.6623  ZZZ=              1.3898  XYY=             57.6545
  XXY=            -67.7582  XXZ=              3.8814  XZZ=             14.8346  YZZ=             -3.5637
  YYZ=            -11.2603  XYZ=            -11.6101
 Hexadecapole moment (field-independent basis, Debye-Ang**3):
 XXXX=          -3015.8165 YYYY=           -869.6321 ZZZZ=           -327.5942 XXXY=           -570.8922
 XXXZ=           -125.7095 YYYX=            -80.1092 YYYZ=             -0.4976 ZZZX=             16.0583
 ZZZY=             14.5650 XXYY=           -636.1181 XXZZ=           -674.7956 YYZZ=           -212.4257
 XXYZ=              7.2953 YYXZ=             -3.6613 ZZXY=            -18.1765
 N-N= 1.008918993781D+03 E-N=-3.603672204303D+03  KE= 6.839424163105D+02
 1\1\GINC-E09\POpt\RHF\6-31G(d)\C11H17N2O2(1+)\WISE\18-May-2016\1\\# op
 t=z-matrix HF/6-31G* scf=tight\\Title Card Required\\1,1\N\H,1,B1\H,1,
 B2,2,A1\H,1,B3,3,A2,2,D1,0\C,1,1.54,3,109.47122063,2,-119.99998525,0\H
 ,5,B4,1,108.2341464,2,-53.03996815,0\C,5,B5,1,A3,6,119.69028598,0\H,7,
 B6,5,A4,6,D2,0\H,7,B7,5,A5,6,D3,0\C,7,B8,5,A6,6,D4,0\C,10,B9,7,A7,5,D5
 ,0\H,11,B10,10,A8,7,D6,0\C,11,B11,10,A9,7,D7,0\H,13,B12,11,A10,10,D8,0
 \C,13,B13,11,A11,10,D9,0\O,15,B14,13,A12,11,D10,0\C,16,B15,15,A13,13,D
 11,0\H,17,B16,16,A14,15,D12,0\H,17,B17,16,A15,15,D13,0\H,17,B18,16,A16
 ,15,D14,0\C,15,B19,13,A17,11,D15,0\H,21,B20,15,A18,13,D16,0\C,21,B21,1
 5,A19,13,D17,0\H,23,B22,21,A20,15,D18,0\C,5,B23,7,A21,10,D19,0\O,25,B2
 4,5,A22,7,D20,0\N,25,B25,5,A23,7,D21,0\H,27,B26,25,A24,5,D22,0\C,27,B2
 7,25,A25,5,D23,0\H,29,B28,27,A26,25,D24,0\H,29,B29,27,A27,25,D25,0\H,2
 9,B30,27,A28,25,D26,0\\B1=1.00894077\B2=1.0104729\B3=1.00925247\B4=1.0
 8058868\B5=1.54108022\B6=1.08761047\B7=1.08528938\B8=1.514527\B9=1.383
 60193\B10=1.07623466\B11=1.38958404\B12=1.07200753\B13=1.38739755\B14=
 1.33333794\B15=1.40766963\B16=1.08385747\B17=1.07791971\B18=1.08354108
 \B19=1.39853905\B20=1.07346211\B21=1.37337989\B22=1.07763179\B23=1.537
 51472\B24=1.20630475\B25=1.32435086\B26=0.99560239\B27=1.45928894\B28=
 1.08217174\B29=1.07907422\B30=1.0795874\A1=109.07622888\A2=106.5613074
 \A3=108.12975008\A4=107.8729345\A5=108.92780358\A6=113.39516367\A7=121
 .28221694\A8=119.98963482\A9=121.60994105\A10=119.10534389\A11=119.705
 67546\A12=125.00076949\A13=120.49618725\A14=111.10294781\A15=105.93471
 209\A16=111.05564742\A17=119.26167313\A18=118.46865804\A19=120.2428717
 3\A20=118.5402656\A21=115.66178952\A22=117.37348762\A23=117.10209622\A
 24=119.32105192\A25=121.61410701\A26=111.15187613\A27=109.63559934\A28
 =108.18485356\D1=119.82881237\D2=70.1890315\D3=-174.0904808\D4=-51.052
 48897\D5=-111.55200693\D6=0.54930759\D7=180.96206532\D8=179.56797386\D
 9=0.12910778\D10=-179.9262649\D11=-2.60430261\D12=62.66273398\D13=-178
 .66766671\D14=-59.92586871\D15=0.06033733\D16=179.21788765\D17=0.17612
 803\D18=178.32861761\D19=75.47680969\D20=111.06744826\D21=-70.42819095
 \D22=7.55816794\D23=179.07544075\D24=-75.13239977\D25=45.51553089\D26=
 164.68381812\\Version=AM64L-G09RevD.01\State=1-A\HF=-684.8675777\RMSD=
 5.305e-09\RMSF=3.008e-03\Dipole=2.1607675,2.3779043,1.3515488\Quadrupo
 le=4.3225806,1.9568524,-6.279433,17.8607079,14.7308272,15.3983514\PG=C
 01 [X(C11H17N2O2)]\\@


 FLOATING POINT NUMBERS ARE LIKE SANDPILES:
 EVERY TIME THAT YOU MOVE ONE, YOU LOSE A LITTLE SAND 
 AND YOU PICK UP A LITTLE DIRT.
 Job cpu time:       0 days  1 hours 49 minutes 51.3 seconds.
 File lengths (MBytes):  RWF=     32 Int=      0 D2E=      0 Chk=      6 Scr=      1
 Normal termination of Gaussian 09 at Wed May 18 22:59:01 2016.
