 Entering Gaussian System, Link 0=/programs/g09/g09
 Input=/scratch2/Wise/temp/temp_05192016/CLYS_all_opt.com
 Output=/scratch2/Wise/temp/temp_05192016/CLYS_all_opt.log
 Initial command:
 /programs/g09/l1.exe "/tmp/Wise/CLYS_all_opt/Gau-25321.inp" -scrdir="/tmp/Wise/CLYS_all_opt/"
 Entering Link 1 = /programs/g09/l1.exe PID=     25322.
  
 Copyright (c) 1988,1990,1992,1993,1995,1998,2003,2009,2013,
            Gaussian, Inc.  All Rights Reserved.
  
 This is part of the Gaussian(R) 09 program.  It is based on
 the Gaussian(R) 03 system (copyright 2003, Gaussian, Inc.),
 the Gaussian(R) 98 system (copyright 1998, Gaussian, Inc.),
 the Gaussian(R) 94 system (copyright 1995, Gaussian, Inc.),
 the Gaussian 92(TM) system (copyright 1992, Gaussian, Inc.),
 the Gaussian 90(TM) system (copyright 1990, Gaussian, Inc.),
 the Gaussian 88(TM) system (copyright 1988, Gaussian, Inc.),
 the Gaussian 86(TM) system (copyright 1986, Carnegie Mellon
 University), and the Gaussian 82(TM) system (copyright 1983,
 Carnegie Mellon University). Gaussian is a federally registered
 trademark of Gaussian, Inc.
  
 This software contains proprietary and confidential information,
 including trade secrets, belonging to Gaussian, Inc.
  
 This software is provided under written license and may be
 used, copied, transmitted, or stored only in accord with that
 written license.
  
 The following legend is applicable only to US Government
 contracts under FAR:
  
                    RESTRICTED RIGHTS LEGEND
  
 Use, reproduction and disclosure by the US Government is
 subject to restrictions as set forth in subparagraphs (a)
 and (c) of the Commercial Computer Software - Restricted
 Rights clause in FAR 52.227-19.
  
 Gaussian, Inc.
 340 Quinnipiac St., Bldg. 40, Wallingford CT 06492
  
  
 ---------------------------------------------------------------
 Warning -- This program may not be used in any manner that
 competes with the business of Gaussian, Inc. or will provide
 assistance to any competitor of Gaussian, Inc.  The licensee
 of this program is prohibited from giving any competitor of
 Gaussian, Inc. access to this program.  By using this program,
 the user acknowledges that Gaussian, Inc. is engaged in the
 business of creating and licensing software in the field of
 computational chemistry and represents and warrants to the
 licensee that it is not a competitor of Gaussian, Inc. and that
 it will not use this program in any manner prohibited above.
 ---------------------------------------------------------------
  

 Cite this work as:
 Gaussian 09, Revision D.01,
 M. J. Frisch, G. W. Trucks, H. B. Schlegel, G. E. Scuseria, 
 M. A. Robb, J. R. Cheeseman, G. Scalmani, V. Barone, B. Mennucci, 
 G. A. Petersson, H. Nakatsuji, M. Caricato, X. Li, H. P. Hratchian, 
 A. F. Izmaylov, J. Bloino, G. Zheng, J. L. Sonnenberg, M. Hada, 
 M. Ehara, K. Toyota, R. Fukuda, J. Hasegawa, M. Ishida, T. Nakajima, 
 Y. Honda, O. Kitao, H. Nakai, T. Vreven, J. A. Montgomery, Jr., 
 J. E. Peralta, F. Ogliaro, M. Bearpark, J. J. Heyd, E. Brothers, 
 K. N. Kudin, V. N. Staroverov, T. Keith, R. Kobayashi, J. Normand, 
 K. Raghavachari, A. Rendell, J. C. Burant, S. S. Iyengar, J. Tomasi, 
 M. Cossi, N. Rega, J. M. Millam, M. Klene, J. E. Knox, J. B. Cross, 
 V. Bakken, C. Adamo, J. Jaramillo, R. Gomperts, R. E. Stratmann, 
 O. Yazyev, A. J. Austin, R. Cammi, C. Pomelli, J. W. Ochterski, 
 R. L. Martin, K. Morokuma, V. G. Zakrzewski, G. A. Voth, 
 P. Salvador, J. J. Dannenberg, S. Dapprich, A. D. Daniels, 
 O. Farkas, J. B. Foresman, J. V. Ortiz, J. Cioslowski, 
 and D. J. Fox, Gaussian, Inc., Wallingford CT, 2013.
 
 ******************************************
 Gaussian 09:  AM64L-G09RevD.01 24-Apr-2013
                18-May-2016 
 ******************************************
 %chk=CLYS_all_opt.chk
 %mem=8GB
 %nproc=8
 Will use up to    8 processors via shared memory.
 ----------------------------------
 # opt=z-matrix HF/6-31G* scf=tight
 ----------------------------------
 1/10=7,18=40,38=1/1,3;
 2/12=2,17=6,18=5,29=3,40=1/2;
 3/5=1,6=6,7=1,11=9,16=1,25=1,30=1,71=1/1,2,3;
 4//1;
 5/5=2,32=2,38=5/2;
 6/7=2,8=2,9=2,10=2,28=1/1;
 7/29=1/1,2,3,16;
 1/10=7,18=40/3(2);
 2/29=3/2;
 99//99;
 2/29=3/2;
 3/5=1,6=6,7=1,11=9,16=1,25=1,30=1,71=1/1,2,3;
 4/5=5,16=3,69=1/1;
 5/5=2,32=2,38=5/2;
 7//1,2,3,16;
 1/18=40/3(-5);
 2/29=3/2;
 6/7=2,8=2,9=2,10=2,19=2,28=1/1;
 99/9=1/99;
 -------------------
 Title Card Required
 -------------------
 Symbolic Z-matrix:
 Charge =  0 Multiplicity = 1
 C
 H                    1    B1
 H                    1    B2       2    A1
 H                    1    B3       2    A2       3    D1       0
 C                    1    B4       4    A3       3    D2       0
 O                    5    B5       1    A4       4    D3       0
 N                    5    B6       1    A5       6    D4       0
 H                    7    B7       5    A6       1    D5       0
 C                    7    B8       5    A7       1    D6       0
 H                    9    B9       7    A8       5    D7       0
 C                    9    B10      7    A9       5    D8       0
 H                    11   B11      9    A10      7    D9       0
 H                    11   B12      9    A11      7    D10      0
 C                    11   B13      9    A12      7    D11      0
 H                    14   B14      11   A13      9    D12      0
 H                    14   B15      11   A14      9    D13      0
 C                    14   B16      11   A15      9    D14      0
 H                    17   B17      14   A16      11   D15      0
 C                    17   B18      14   A17      11   D16      0
 H                    19   B19      17   A18      14   D17      0
 H                    19   B20      17   A19      14   D18      0
 N                    19   B21      17   A20      14   D19      0
 H                    22   B22      19   A21      17   D20      0
 H                    22   B23      19   A22      17   D21      0
 H                    22   B24      19   A23      17   D22      0
 O                    17   B25      14   A24      11   D23      0
 C                    26   B26      17   A25      14   D24      0
 H                    27   B27      26   A26      17   D25      0
 H                    27   B28      26   A27      17   D26      0
 H                    27   B29      26   A28      17   D27      0
 C                    9    B30      7    A29      5    D28      0
 O                    31   B31      9    A30      7    D29      0
 O                    31   B32      9    A31      7    D30      0
       Variables:
  B1                    1.08482                  
  B2                    1.08541                  
  B3                    1.07894                  
  B4                    1.51135                  
  B5                    1.20015                  
  B6                    1.3667                   
  B7                    0.99646                  
  B8                    1.45039                  
  B9                    1.08386                  
  B10                   1.53582                  
  B11                   1.08103                  
  B12                   1.08511                  
  B13                   1.53269                  
  B14                   1.08266                  
  B15                   1.08631                  
  B16                   1.53446                  
  B17                   1.09069                  
  B18                   1.5258                   
  B19                   1.07919                  
  B20                   1.07989                  
  B21                   1.50776                  
  B22                   1.00987                  
  B23                   1.00939                  
  B24                   1.01471                  
  B25                   1.40316                  
  B26                   1.41563                  
  B27                   1.0851                   
  B28                   1.07909                  
  B29                   1.08072                  
  B30                   1.53228                  
  B31                   1.20446                  
  B32                   1.34086                  
  A1                  107.92456                  
  A2                  109.90801                  
  A3                  109.43732                  
  A4                  123.28078                  
  A5                  115.31072                  
  A6                  118.26552                  
  A7                  120.17339                  
  A8                  105.94396                  
  A9                  112.79929                  
  A10                 106.94526                  
  A11                 109.66576                  
  A12                 112.76833                  
  A13                 108.12586                  
  A14                 110.68614                  
  A15                 114.13519                  
  A16                 110.25742                  
  A17                 109.31942                  
  A18                 112.98059                  
  A19                 110.61324                  
  A20                 108.43961                  
  A21                 111.93353                  
  A22                 112.7985                   
  A23                 107.07535                  
  A24                 115.0829                   
  A25                 118.06982                  
  A26                 110.55572                  
  A27                 106.43492                  
  A28                 111.39372                  
  A29                 110.97114                  
  A30                 120.73903                  
  A31                 116.07426                  
  D1                 -119.77254                  
  D2                 -121.15364                  
  D3                   -0.96998                  
  D4                 -178.96383                  
  D5                  -15.47462                  
  D6                 -175.20337                  
  D7                  -44.2145                   
  D8                   74.06071                  
  D9                  -37.43601                  
  D10                  79.05271                  
  D11                -158.50155                  
  D12                 -68.98165                  
  D13                  47.91124                  
  D14                 168.69837                  
  D15                  27.51836                  
  D16                 147.54554                  
  D17                 -70.70013                  
  D18                  53.10689                  
  D19                 169.19328                  
  D20                  71.43858                  
  D21                -166.7209                   
  D22                 -46.1577                   
  D23                 -96.63933                  
  D24                  64.00119                  
  D25                  54.89258                  
  D26                 173.57942                  
  D27                 -67.38617                  
  D28                -159.47808                  
  D29                -143.9831                   
  D30                  37.11845                  
 

 GradGradGradGradGradGradGradGradGradGradGradGradGradGradGradGradGradGrad
 Berny optimization.
 Initialization pass.
                       ----------------------------
                       !    Initial Parameters    !
                       ! (Angstroms and Degrees)  !
 ----------------------                            ----------------------
 !      Name          Value   Derivative information (Atomic Units)     !
 ------------------------------------------------------------------------
 !       B1          1.0848   estimate D2E/DX2                          !
 !       B2          1.0854   estimate D2E/DX2                          !
 !       B3          1.0789   estimate D2E/DX2                          !
 !       B4          1.5113   estimate D2E/DX2                          !
 !       B5          1.2001   estimate D2E/DX2                          !
 !       B6          1.3667   estimate D2E/DX2                          !
 !       B7          0.9965   estimate D2E/DX2                          !
 !       B8          1.4504   estimate D2E/DX2                          !
 !       B9          1.0839   estimate D2E/DX2                          !
 !       B10         1.5358   estimate D2E/DX2                          !
 !       B11         1.081    estimate D2E/DX2                          !
 !       B12         1.0851   estimate D2E/DX2                          !
 !       B13         1.5327   estimate D2E/DX2                          !
 !       B14         1.0827   estimate D2E/DX2                          !
 !       B15         1.0863   estimate D2E/DX2                          !
 !       B16         1.5345   estimate D2E/DX2                          !
 !       B17         1.0907   estimate D2E/DX2                          !
 !       B18         1.5258   estimate D2E/DX2                          !
 !       B19         1.0792   estimate D2E/DX2                          !
 !       B20         1.0799   estimate D2E/DX2                          !
 !       B21         1.5078   estimate D2E/DX2                          !
 !       B22         1.0099   estimate D2E/DX2                          !
 !       B23         1.0094   estimate D2E/DX2                          !
 !       B24         1.0147   estimate D2E/DX2                          !
 !       B25         1.4032   estimate D2E/DX2                          !
 !       B26         1.4156   estimate D2E/DX2                          !
 !       B27         1.0851   estimate D2E/DX2                          !
 !       B28         1.0791   estimate D2E/DX2                          !
 !       B29         1.0807   estimate D2E/DX2                          !
 !       B30         1.5323   estimate D2E/DX2                          !
 !       B31         1.2045   estimate D2E/DX2                          !
 !       B32         1.3409   estimate D2E/DX2                          !
 !       A1        107.9246   estimate D2E/DX2                          !
 !       A2        109.908    estimate D2E/DX2                          !
 !       A3        109.4373   estimate D2E/DX2                          !
 !       A4        123.2808   estimate D2E/DX2                          !
 !       A5        115.3107   estimate D2E/DX2                          !
 !       A6        118.2655   estimate D2E/DX2                          !
 !       A7        120.1734   estimate D2E/DX2                          !
 !       A8        105.944    estimate D2E/DX2                          !
 !       A9        112.7993   estimate D2E/DX2                          !
 !       A10       106.9453   estimate D2E/DX2                          !
 !       A11       109.6658   estimate D2E/DX2                          !
 !       A12       112.7683   estimate D2E/DX2                          !
 !       A13       108.1259   estimate D2E/DX2                          !
 !       A14       110.6861   estimate D2E/DX2                          !
 !       A15       114.1352   estimate D2E/DX2                          !
 !       A16       110.2574   estimate D2E/DX2                          !
 !       A17       109.3194   estimate D2E/DX2                          !
 !       A18       112.9806   estimate D2E/DX2                          !
 !       A19       110.6132   estimate D2E/DX2                          !
 !       A20       108.4396   estimate D2E/DX2                          !
 !       A21       111.9335   estimate D2E/DX2                          !
 !       A22       112.7985   estimate D2E/DX2                          !
 !       A23       107.0753   estimate D2E/DX2                          !
 !       A24       115.0829   estimate D2E/DX2                          !
 !       A25       118.0698   estimate D2E/DX2                          !
 !       A26       110.5557   estimate D2E/DX2                          !
 !       A27       106.4349   estimate D2E/DX2                          !
 !       A28       111.3937   estimate D2E/DX2                          !
 !       A29       110.9711   estimate D2E/DX2                          !
 !       A30       120.739    estimate D2E/DX2                          !
 !       A31       116.0743   estimate D2E/DX2                          !
 !       D1       -119.7725   estimate D2E/DX2                          !
 !       D2       -121.1536   estimate D2E/DX2                          !
 !       D3         -0.97     estimate D2E/DX2                          !
 !       D4       -178.9638   estimate D2E/DX2                          !
 !       D5        -15.4746   estimate D2E/DX2                          !
 !       D6       -175.2034   estimate D2E/DX2                          !
 !       D7        -44.2145   estimate D2E/DX2                          !
 !       D8         74.0607   estimate D2E/DX2                          !
 !       D9        -37.436    estimate D2E/DX2                          !
 !       D10        79.0527   estimate D2E/DX2                          !
 !       D11      -158.5015   estimate D2E/DX2                          !
 !       D12       -68.9816   estimate D2E/DX2                          !
 !       D13        47.9112   estimate D2E/DX2                          !
 !       D14       168.6984   estimate D2E/DX2                          !
 !       D15        27.5184   estimate D2E/DX2                          !
 !       D16       147.5455   estimate D2E/DX2                          !
 !       D17       -70.7001   estimate D2E/DX2                          !
 !       D18        53.1069   estimate D2E/DX2                          !
 !       D19       169.1933   estimate D2E/DX2                          !
 !       D20        71.4386   estimate D2E/DX2                          !
 !       D21      -166.7209   estimate D2E/DX2                          !
 !       D22       -46.1577   estimate D2E/DX2                          !
 !       D23       -96.6393   estimate D2E/DX2                          !
 !       D24        64.0012   estimate D2E/DX2                          !
 !       D25        54.8926   estimate D2E/DX2                          !
 !       D26       173.5794   estimate D2E/DX2                          !
 !       D27       -67.3862   estimate D2E/DX2                          !
 !       D28      -159.4781   estimate D2E/DX2                          !
 !       D29      -143.9831   estimate D2E/DX2                          !
 !       D30        37.1185   estimate D2E/DX2                          !
 ------------------------------------------------------------------------
 Trust Radius=3.00D-01 FncErr=1.00D-07 GrdErr=1.00D-07
 Number of steps in this run=    103 maximum allowed number of steps=    186.
 GradGradGradGradGradGradGradGradGradGradGradGradGradGradGradGradGradGrad

 ---------------------------------------------------------------------------------------------------
                            Z-MATRIX (ANGSTROMS AND DEGREES)
   CD    Cent   Atom    N1       Length/X        N2       Alpha/Y        N3        Beta/Z          J
 ---------------------------------------------------------------------------------------------------
      1      1  C 
      2      2  H        1   1.084820(     1)
      3      3  H        1   1.085414(     2)      2  107.925(    33)
      4      4  H        1   1.078937(     3)      2  109.908(    34)      3 -119.773(    64)      0
      5      5  C        1   1.511348(     4)      4  109.437(    35)      3 -121.154(    65)      0
      6      6  O        5   1.200145(     5)      1  123.281(    36)      4   -0.970(    66)      0
      7      7  N        5   1.366700(     6)      1  115.311(    37)      6 -178.964(    67)      0
      8      8  H        7   0.996457(     7)      5  118.266(    38)      1  -15.475(    68)      0
      9      9  C        7   1.450394(     8)      5  120.173(    39)      1 -175.203(    69)      0
     10     10  H        9   1.083863(     9)      7  105.944(    40)      5  -44.214(    70)      0
     11     11  C        9   1.535818(    10)      7  112.799(    41)      5   74.061(    71)      0
     12     12  H       11   1.081032(    11)      9  106.945(    42)      7  -37.436(    72)      0
     13     13  H       11   1.085110(    12)      9  109.666(    43)      7   79.053(    73)      0
     14     14  C       11   1.532690(    13)      9  112.768(    44)      7 -158.502(    74)      0
     15     15  H       14   1.082664(    14)     11  108.126(    45)      9  -68.982(    75)      0
     16     16  H       14   1.086311(    15)     11  110.686(    46)      9   47.911(    76)      0
     17     17  C       14   1.534456(    16)     11  114.135(    47)      9  168.698(    77)      0
     18     18  H       17   1.090693(    17)     14  110.257(    48)     11   27.518(    78)      0
     19     19  C       17   1.525798(    18)     14  109.319(    49)     11  147.546(    79)      0
     20     20  H       19   1.079192(    19)     17  112.981(    50)     14  -70.700(    80)      0
     21     21  H       19   1.079892(    20)     17  110.613(    51)     14   53.107(    81)      0
     22     22  N       19   1.507756(    21)     17  108.440(    52)     14  169.193(    82)      0
     23     23  H       22   1.009871(    22)     19  111.934(    53)     17   71.439(    83)      0
     24     24  H       22   1.009393(    23)     19  112.799(    54)     17 -166.721(    84)      0
     25     25  H       22   1.014705(    24)     19  107.075(    55)     17  -46.158(    85)      0
     26     26  O       17   1.403163(    25)     14  115.083(    56)     11  -96.639(    86)      0
     27     27  C       26   1.415626(    26)     17  118.070(    57)     14   64.001(    87)      0
     28     28  H       27   1.085100(    27)     26  110.556(    58)     17   54.893(    88)      0
     29     29  H       27   1.079088(    28)     26  106.435(    59)     17  173.579(    89)      0
     30     30  H       27   1.080722(    29)     26  111.394(    60)     17  -67.386(    90)      0
     31     31  C        9   1.532280(    30)      7  110.971(    61)      5 -159.478(    91)      0
     32     32  O       31   1.204457(    31)      9  120.739(    62)      7 -143.983(    92)      0
     33     33  O       31   1.340859(    32)      9  116.074(    63)      7   37.118(    93)      0
 ---------------------------------------------------------------------------------------------------
                         Z-Matrix orientation:                         
 ---------------------------------------------------------------------
 Center     Atomic      Atomic             Coordinates (Angstroms)
 Number     Number       Type             X           Y           Z
 ---------------------------------------------------------------------
      1          6           0        0.000000    0.000000    0.000000
      2          1           0        0.000000    0.000000    1.084820
      3          1           0        1.032731    0.000000   -0.334052
      4          1           0       -0.503738    0.880555   -0.367390
      5          6           0       -0.712455   -1.234012   -0.503782
      6          8           0       -1.696365   -1.192490   -1.189746
      7          7           0       -0.171503   -2.424370   -0.105931
      8          1           0        0.751438   -2.421185    0.269696
      9          6           0       -0.707171   -3.673786   -0.611561
     10          1           0       -1.785569   -3.577437   -0.561224
     11          6           0       -0.315427   -3.941477   -2.072250
     12          1           0       -0.335289   -2.989126   -2.583389
     13          1           0        0.701736   -4.317044   -2.114585
     14          6           0       -1.258072   -4.929951   -2.767576
     15          1           0       -1.106020   -5.907149   -2.326978
     16          1           0       -2.295375   -4.659974   -2.590980
     17          6           0       -1.068659   -5.013942   -4.287979
     18          1           0       -0.042094   -4.760267   -4.555232
     19          6           0       -1.372351   -6.433805   -4.756829
     20          1           0       -0.622588   -7.147626   -4.451919
     21          1           0       -2.345146   -6.748927   -4.409648
     22          7           0       -1.442713   -6.433917   -6.262942
     23          1           0       -0.532247   -6.314138   -6.683116
     24          1           0       -1.846319   -7.280745   -6.635581
     25          1           0       -2.011596   -5.638840   -6.534697
     26          8           0       -1.951948   -4.226341   -5.041868
     27          6           0       -1.881354   -2.820098   -4.895256
     28          1           0       -0.872444   -2.467617   -5.083141
     29          1           0       -2.549600   -2.402360   -5.632394
     30          1           0       -2.198421   -2.510083   -3.909700
     31          6           0       -0.330142   -4.842775    0.304517
     32          8           0       -0.079687   -5.928106   -0.153793
     33          8           0       -0.322586   -4.582145    1.619779
 ---------------------------------------------------------------------
                    Distance matrix (angstroms):
                    1          2          3          4          5
     1  C    0.000000
     2  H    1.084820   0.000000
     3  H    1.085414   1.754916   0.000000
     4  H    1.078937   1.771452   1.771222   0.000000
     5  C    1.511348   2.134018   2.144124   2.129215   0.000000
     6  O    2.390645   3.077878   3.098743   2.529060   1.200145
     7  N    2.432736   2.706450   2.716577   3.331857   1.366700
     8  H    2.549418   2.662935   2.511130   3.589266   2.037310
     9  C    3.790884   4.107859   4.074429   4.565417   2.442160
    10  H    4.037485   4.323861   4.559877   4.642667   2.578084
    11  C    4.464186   5.059825   4.513768   5.118008   3.154060
    12  H    3.964996   4.743738   3.983198   4.462450   2.747262
    13  H    4.858063   5.418994   4.681530   5.614347   3.754958
    14  C    5.791946   6.381858   5.956025   6.331816   4.368344
    15  H    6.444573   6.910720   6.590935   7.090533   5.031615
    16  H    5.804936   6.363616   6.155109   6.233119   4.312684
    17  C    6.683442   7.426211   6.722275   7.101777   5.360494
    18  H    6.588782   7.380522   6.452422   7.040597   5.412773
    19  C    8.118165   8.797843   8.169407   8.574469   6.749942
    20  H    8.443682   9.062652   8.413410   9.008285   7.111027
    21  H    8.395994   9.013151   8.577211   8.828342   6.952392
    22  N    9.094018   9.872503   9.092571   9.441436   7.793602
    23  H    9.209542  10.024592   9.090000   9.573547   8.001520
    24  H   10.022429  10.771385  10.050246  10.377840   8.686058
    25  H    8.862578   9.690204   8.916974   9.100100   7.580383
    26  O    6.862397   7.694697   6.995270   7.073079   5.575357
    27  C    5.954492   6.874137   6.103231   6.007848   4.813216
    28  H    5.717396   6.700301   5.680904   5.795214   4.745304
    29  H    6.632922   7.575801   6.832046   6.533250   5.571607
    30  H    5.139973   6.006563   5.433794   5.188096   3.928961
    31  C    4.863558   4.916334   5.071259   5.765250   3.717887
    32  O    5.930635   6.056645   6.034269   6.825196   4.749464
    33  O    4.870708   4.624532   5.162402   5.815733   3.983906
                    6          7          8          9         10
     6  O    0.000000
     7  N    2.239953   0.000000
     8  H    3.103450   0.996457   0.000000
     9  C    2.733063   1.450394   2.114986   0.000000
    10  H    2.467989   2.035206   2.909253   1.083863   0.000000
    11  C    3.200427   2.487718   2.989013   1.535818   2.139402
    12  H    2.650032   2.546286   3.105419   2.120180   2.557063
    13  H    4.045868   2.894728   3.046563   2.158213   3.024340
    14  C    4.080473   3.813519   4.422337   2.555356   2.641124
    15  H    4.885674   4.235106   4.727030   2.844231   3.001205
    16  H    3.787573   3.960331   4.741172   2.722693   2.356204
    17  C    4.959491   5.000029   5.550454   3.929725   4.057857
    18  H    5.176113   5.026872   5.420418   4.144311   4.515627
    19  C    6.348263   6.256872   6.773297   5.024282   5.092414
    20  H    6.874476   6.434302   6.820619   5.179100   5.407059
    21  H    6.454663   6.476766   7.086215   5.154117   5.018151
    22  N    7.298919   7.456624   7.974439   6.332256   6.386440
    23  H    7.600234   7.649823   8.071216   6.623129   6.821869
    24  H    8.169851   8.308172   8.834394   7.113131   7.114492
    25  H    6.959734   7.419420   8.017944   6.375461   6.323199
    26  O    4.910033   5.548024   6.227327   4.634913   4.530445
    27  C    4.051436   5.100768   5.810977   4.523001   4.400746
    28  H    4.178914   5.026511   5.593926   4.634349   4.744811
    29  H    4.682832   6.016447   6.762535   5.497257   5.261303
    30  H    3.063701   4.310963   5.116339   3.802072   3.538641
    31  C    4.174202   2.458112   2.652382   1.532280   2.113966
    32  O    5.110078   3.505265   3.628857   2.384375   2.932861
    33  O    4.611991   2.767109   2.765140   2.439651   2.811856
                   11         12         13         14         15
    11  C    0.000000
    12  H    1.081032   0.000000
    13  H    1.085110   1.748875   0.000000
    14  C    1.532690   2.156909   2.154739   0.000000
    15  H    2.133961   3.028966   2.416925   1.082664   0.000000
    16  H    2.169219   2.575602   3.054051   1.086311   1.743476
    17  C    2.574294   2.746513   2.888529   1.534456   2.155165
    18  H    2.628750   2.666659   2.589689   2.168665   2.722571
    19  C    3.812577   4.202993   3.970386   2.496350   2.500494
    20  H    4.004568   4.568049   3.902456   2.856385   2.507561
    21  H    4.179110   4.637979   4.523810   2.680821   2.565450
    22  N    5.004491   5.160629   5.127249   3.809671   3.985305
    23  H    5.190049   5.282259   5.136397   4.215951   4.412572
    24  H    5.858185   6.092739   5.976246   4.564398   4.582452
    25  H    5.066701   5.044187   5.352261   3.906599   4.312418
    26  O    3.402644   3.191929   3.952120   2.479705   3.303232
    27  C    3.417453   2.786327   4.079869   3.060552   4.089875
    28  H    3.398234   2.609457   3.835459   3.402005   4.413771
    29  H    4.476052   3.813647   5.158700   4.032858   5.029239
    30  H    2.995126   2.336631   3.859851   2.836276   3.903640
    31  C    2.541962   3.431624   2.682018   3.210359   2.942727
    32  O    2.771776   3.821763   2.655343   3.035913   2.403442
    33  O    3.747211   4.494941   3.881365   4.499443   4.236308
                   16         17         18         19         20
    16  H    0.000000
    17  C    2.123660   0.000000
    18  H    2.990923   1.090693   0.000000
    19  C    2.947771   1.525798   2.147313   0.000000
    20  H    3.528417   2.185970   2.459092   1.079192   0.000000
    21  H    2.770155   2.157405   3.046311   1.079892   1.768602
    22  N    4.166199   2.461042   2.771121   1.507756   2.112295
    23  H    4.752942   2.777576   2.680047   2.104917   2.383507
    24  H    4.840340   3.354757   3.733081   2.114631   2.506715
    25  H    4.073280   2.515427   2.927304   2.049736   2.922968
    26  O    2.512536   1.403163   2.041920   2.300017   3.263303
    27  C    2.977624   2.417066   2.694948   3.652002   4.528635
    28  H    3.611375   2.674799   2.494877   4.010864   4.728991
    29  H    3.796268   3.289529   3.606604   4.290114   5.255897
    30  H    2.523976   2.772862   3.182732   4.098244   4.927885
    31  C    3.504205   4.654645   4.868977   5.406920   5.293538
    32  O    3.529492   4.348017   4.553892   4.807770   4.500651
    33  O    4.650639   5.970316   6.183945   6.722483   6.598274
                   21         22         23         24         25
    21  H    0.000000
    22  N    2.085261   0.000000
    23  H    2.940118   1.009871   0.000000
    24  H    2.342315   1.009393   1.631985   0.000000
    25  H    2.420616   1.014705   1.632951   1.653284   0.000000
    26  O    2.630161   2.573662   3.011335   3.446805   2.056027
    27  C    3.985801   3.888786   4.150282   4.788249   3.263438
    28  H    4.577341   4.177161   4.179877   5.150214   3.668969
    29  H    4.519906   4.228031   4.525012   5.029874   3.402705
    30  H    4.270746   4.637382   4.993876   5.505780   4.088353
    31  C    5.469643   6.848435   7.143722   7.510489   7.087725
    32  O    4.890639   6.279761   6.556363   6.853044   6.673221
    33  O    6.718608   8.174414   8.484210   8.817890   8.394334
                   26         27         28         29         30
    26  O    0.000000
    27  C    1.415626   0.000000
    28  H    2.064011   1.085100   0.000000
    29  H    2.008187   1.079088   1.766010   0.000000
    30  H    2.070771   1.080722   1.771152   1.761421   0.000000
    31  C    5.620861   5.790951   5.912894   6.791798   5.166385
    32  O    5.504058   5.948713   6.074695   6.967526   5.502613
    33  O    6.867239   6.926778   7.050015   7.893356   6.195752
                   31         32         33
    31  C    0.000000
    32  O    1.204457   0.000000
    33  O    1.340859   2.239680   0.000000
 Stoichiometry    C9H18N2O4
 Framework group  C1[X(C9H18N2O4)]
 Deg. of freedom    93
 Full point group                 C1      NOp   1
 Largest Abelian subgroup         C1      NOp   1
 Largest concise Abelian subgroup C1      NOp   1
                         Standard orientation:                         
 ---------------------------------------------------------------------
 Center     Atomic      Atomic             Coordinates (Angstroms)
 Number     Number       Type             X           Y           Z
 ---------------------------------------------------------------------
      1          6           0        3.952877   -2.109597    0.610493
      2          1           0        4.868981   -1.592759    0.345040
      3          1           0        3.852948   -2.078746    1.690857
      4          1           0        3.999074   -3.134366    0.276099
      5          6           0        2.777716   -1.419751   -0.043175
      6          8           0        2.045875   -1.963282   -0.823773
      7          7           0        2.607135   -0.107270    0.297652
      8          1           0        3.088757    0.238754    1.098423
      9          6           0        1.453808    0.627465   -0.185714
     10          1           0        1.354815    0.370206   -1.233940
     11          6           0        0.154019    0.233773    0.531426
     12          1           0        0.200486   -0.832185    0.705223
     13          1           0        0.107763    0.723635    1.498565
     14          6           0       -1.099330    0.578911   -0.280446
     15          1           0       -1.194615    1.656943   -0.310930
     16          1           0       -0.996645    0.240090   -1.307445
     17          6           0       -2.392336   -0.038392    0.268761
     18          1           0       -2.308657   -0.194947    1.344910
     19          6           0       -3.559881    0.903087   -0.011449
     20          1           0       -3.531125    1.800003    0.588025
     21          1           0       -3.597654    1.160443   -1.059546
     22          7           0       -4.844226    0.172684    0.289048
     23          1           0       -4.977876    0.037029    1.280802
     24          1           0       -5.658357    0.648951   -0.070446
     25          1           0       -4.771985   -0.745018   -0.137838
     26          8           0       -2.786488   -1.237213   -0.344703
     27          6           0       -1.939071   -2.363390   -0.212013
     28          1           0       -1.741513   -2.570329    0.834691
     29          1           0       -2.468188   -3.196677   -0.648016
     30          1           0       -1.005944   -2.218713   -0.737659
     31          6           0        1.702748    2.138312   -0.128681
     32          8           0        0.811031    2.899151    0.148237
     33          8           0        2.946592    2.542254   -0.424626
 ---------------------------------------------------------------------
 Rotational constants (GHZ):      0.7933296      0.3117007      0.2333179
 Standard basis: 6-31G(d) (6D, 7F)
 There are   261 symmetry adapted cartesian basis functions of A   symmetry.
 There are   261 symmetry adapted basis functions of A   symmetry.
   261 basis functions,   492 primitive gaussians,   261 cartesian basis functions
    59 alpha electrons       59 beta electrons
       nuclear repulsion energy      1069.0978673908 Hartrees.
 NAtoms=   33 NActive=   33 NUniq=   33 SFac= 1.00D+00 NAtFMM=   60 NAOKFM=F Big=F
 Integral buffers will be    131072 words long.
 Raffenetti 1 integral format.
 Two-electron integral symmetry is turned on.
 One-electron integrals computed using PRISM.
 NBasis=   261 RedAO= T EigKep=  2.10D-03  NBF=   261
 NBsUse=   261 1.00D-06 EigRej= -1.00D+00 NBFU=   261
 ExpMin= 1.61D-01 ExpMax= 5.48D+03 ExpMxC= 8.25D+02 IAcc=1 IRadAn=         1 AccDes= 0.00D+00
 Harris functional with IExCor=  205 and IRadAn=       1 diagonalized for initial guess.
 HarFok:  IExCor=  205 AccDes= 0.00D+00 IRadAn=         1 IDoV= 1 UseB2=F ITyADJ=14
 ICtDFT=  3500011 ScaDFX=  1.000000  1.000000  1.000000  1.000000
 FoFCou: FMM=F IPFlag=           0 FMFlag=      100000 FMFlg1=           0
         NFxFlg=           0 DoJE=T BraDBF=F KetDBF=T FulRan=T
         wScrn=  0.000000 ICntrl=     500 IOpCl=  0 I1Cent=   200000004 NGrid=           0
         NMat0=    1 NMatS0=      1 NMatT0=    0 NMatD0=    1 NMtDS0=    0 NMtDT0=    0
 Petite list used in FoFCou.
 Keep R1 ints in memory in canonical form, NReq=593748559.
 Requested convergence on RMS density matrix=1.00D-08 within 128 cycles.
 Requested convergence on MAX density matrix=1.00D-06.
 Requested convergence on             energy=1.00D-06.
 No special actions if energy rises.
 SCF Done:  E(RHF) =  -759.538814463     A.U. after   14 cycles
            NFock= 14  Conv=0.78D-08     -V/T= 2.0017

 **********************************************************************

            Population analysis using the SCF density.

 **********************************************************************

 Orbital symmetries:
       Occupied  (A) (A) (A) (A) (A) (A) (A) (A) (A) (A) (A) (A)
                 (A) (A) (A) (A) (A) (A) (A) (A) (A) (A) (A) (A)
                 (A) (A) (A) (A) (A) (A) (A) (A) (A) (A) (A) (A)
                 (A) (A) (A) (A) (A) (A) (A) (A) (A) (A) (A) (A)
                 (A) (A) (A) (A) (A) (A) (A) (A) (A) (A) (A)
       Virtual   (A) (A) (A) (A) (A) (A) (A) (A) (A) (A) (A) (A)
                 (A) (A) (A) (A) (A) (A) (A) (A) (A) (A) (A) (A)
                 (A) (A) (A) (A) (A) (A) (A) (A) (A) (A) (A) (A)
                 (A) (A) (A) (A) (A) (A) (A) (A) (A) (A) (A) (A)
                 (A) (A) (A) (A) (A) (A) (A) (A) (A) (A) (A) (A)
                 (A) (A) (A) (A) (A) (A) (A) (A) (A) (A) (A) (A)
                 (A) (A) (A) (A) (A) (A) (A) (A) (A) (A) (A) (A)
                 (A) (A) (A) (A) (A) (A) (A) (A) (A) (A) (A) (A)
                 (A) (A) (A) (A) (A) (A) (A) (A) (A) (A) (A) (A)
                 (A) (A) (A) (A) (A) (A) (A) (A) (A) (A) (A) (A)
                 (A) (A) (A) (A) (A) (A) (A) (A) (A) (A) (A) (A)
                 (A) (A) (A) (A) (A) (A) (A) (A) (A) (A) (A) (A)
                 (A) (A) (A) (A) (A) (A) (A) (A) (A) (A) (A) (A)
                 (A) (A) (A) (A) (A) (A) (A) (A) (A) (A) (A) (A)
                 (A) (A) (A) (A) (A) (A) (A) (A) (A) (A) (A) (A)
                 (A) (A) (A) (A) (A) (A) (A) (A) (A) (A) (A) (A)
                 (A) (A) (A) (A) (A) (A) (A) (A) (A) (A)
 The electronic state is 1-A.
 Alpha  occ. eigenvalues --  -20.62078 -20.48927 -20.40209 -20.35342 -15.79128
 Alpha  occ. eigenvalues --  -15.53144 -11.36813 -11.34167 -11.31062 -11.30228
 Alpha  occ. eigenvalues --  -11.22856 -11.22637 -11.20546 -11.20346 -11.19771
 Alpha  occ. eigenvalues --   -1.44809  -1.40677  -1.35691  -1.27357  -1.18227
 Alpha  occ. eigenvalues --   -1.12590  -1.10801  -1.04142  -0.98959  -0.97990
 Alpha  occ. eigenvalues --   -0.92801  -0.88661  -0.87466  -0.84361  -0.81365
 Alpha  occ. eigenvalues --   -0.74621  -0.74022  -0.73184  -0.69142  -0.67782
 Alpha  occ. eigenvalues --   -0.67186  -0.64924  -0.62496  -0.60648  -0.59796
 Alpha  occ. eigenvalues --   -0.59084  -0.58217  -0.56284  -0.55231  -0.54233
 Alpha  occ. eigenvalues --   -0.53288  -0.51349  -0.50939  -0.49306  -0.47752
 Alpha  occ. eigenvalues --   -0.46734  -0.45970  -0.45050  -0.42407  -0.38411
 Alpha  occ. eigenvalues --   -0.34220  -0.29314  -0.26668  -0.25664
 Alpha virt. eigenvalues --    0.08053   0.14584   0.17861   0.19683   0.21474
 Alpha virt. eigenvalues --    0.23027   0.23653   0.25490   0.25778   0.26548
 Alpha virt. eigenvalues --    0.27843   0.28809   0.29216   0.30982   0.31643
 Alpha virt. eigenvalues --    0.32196   0.33259   0.33963   0.34704   0.34863
 Alpha virt. eigenvalues --    0.36366   0.38211   0.39734   0.40634   0.43181
 Alpha virt. eigenvalues --    0.43910   0.48025   0.49024   0.52506   0.53915
 Alpha virt. eigenvalues --    0.57923   0.61011   0.65145   0.66088   0.66641
 Alpha virt. eigenvalues --    0.68003   0.69759   0.71771   0.74332   0.74601
 Alpha virt. eigenvalues --    0.77077   0.78199   0.78533   0.80751   0.83050
 Alpha virt. eigenvalues --    0.84477   0.85457   0.86296   0.87971   0.90366
 Alpha virt. eigenvalues --    0.91930   0.93326   0.94962   0.95647   0.97685
 Alpha virt. eigenvalues --    0.99248   1.00706   1.01282   1.01411   1.02159
 Alpha virt. eigenvalues --    1.03198   1.03784   1.04198   1.05484   1.06823
 Alpha virt. eigenvalues --    1.07527   1.08677   1.09499   1.11197   1.12097
 Alpha virt. eigenvalues --    1.13282   1.14184   1.15436   1.16341   1.17800
 Alpha virt. eigenvalues --    1.18000   1.19484   1.20715   1.20915   1.22514
 Alpha virt. eigenvalues --    1.23246   1.23578   1.23920   1.25728   1.26918
 Alpha virt. eigenvalues --    1.27893   1.30216   1.31071   1.33452   1.35402
 Alpha virt. eigenvalues --    1.38370   1.40489   1.43207   1.43893   1.46648
 Alpha virt. eigenvalues --    1.47490   1.49013   1.53591   1.55095   1.57970
 Alpha virt. eigenvalues --    1.59530   1.59854   1.64250   1.64727   1.66057
 Alpha virt. eigenvalues --    1.69013   1.70822   1.72257   1.74612   1.76882
 Alpha virt. eigenvalues --    1.79596   1.82192   1.83967   1.86517   1.88188
 Alpha virt. eigenvalues --    1.92788   1.95217   1.98387   2.00929   2.03138
 Alpha virt. eigenvalues --    2.07190   2.08109   2.10158   2.11503   2.12973
 Alpha virt. eigenvalues --    2.15364   2.16633   2.17715   2.19049   2.20870
 Alpha virt. eigenvalues --    2.21672   2.22418   2.23498   2.24663   2.25742
 Alpha virt. eigenvalues --    2.29250   2.29356   2.31372   2.33638   2.34051
 Alpha virt. eigenvalues --    2.35487   2.36295   2.38900   2.39536   2.40183
 Alpha virt. eigenvalues --    2.42202   2.44195   2.44916   2.47097   2.48584
 Alpha virt. eigenvalues --    2.50944   2.53374   2.54009   2.57994   2.58409
 Alpha virt. eigenvalues --    2.60480   2.61732   2.63368   2.64753   2.71211
 Alpha virt. eigenvalues --    2.72634   2.74183   2.74375   2.80459   2.81972
 Alpha virt. eigenvalues --    2.83892   2.86033   2.89483   2.91409   2.91453
 Alpha virt. eigenvalues --    2.94842   3.01897   3.02905   3.05004   3.09099
 Alpha virt. eigenvalues --    3.11946   3.14757   3.17110   3.21732   3.27241
 Alpha virt. eigenvalues --    3.28389   3.37497   3.40601   3.43157   3.51261
 Alpha virt. eigenvalues --    3.61262   3.65808   4.08830   4.35328   4.39781
 Alpha virt. eigenvalues --    4.47421   4.54989   4.60300   4.66615   4.68114
 Alpha virt. eigenvalues --    4.68334   4.76206   4.84095   4.93677   4.95970
 Alpha virt. eigenvalues --    5.03057   5.13656
          Condensed to atoms (all electrons):
               1          2          3          4          5          6
     1  C    5.256392   0.378638   0.373561   0.382183   0.375768  -0.066734
     2  H    0.378638   0.482485  -0.024615  -0.017870  -0.030148   0.000933
     3  H    0.373561  -0.024615   0.528825  -0.020646  -0.031523   0.001261
     4  H    0.382183  -0.017870  -0.020646   0.485243  -0.034525   0.004390
     5  C    0.375768  -0.030148  -0.031523  -0.034525   4.151556   0.592518
     6  O   -0.066734   0.000933   0.001261   0.004390   0.592518   8.201518
     7  N   -0.122491   0.002713   0.002554   0.004649   0.295507  -0.113511
     8  H   -0.001351   0.000178   0.000500  -0.000022  -0.017895   0.002464
     9  C    0.004967  -0.000159  -0.000251  -0.000096  -0.036003   0.007654
    10  H    0.000238  -0.000017  -0.000007  -0.000003  -0.004367   0.006396
    11  C   -0.000251  -0.000002   0.000073   0.000005  -0.005254  -0.002515
    12  H    0.000084   0.000002  -0.000034   0.000006   0.001543   0.004372
    13  H    0.000001   0.000000  -0.000005   0.000000   0.000238   0.000071
    14  C   -0.000001   0.000000   0.000000   0.000000   0.000111  -0.000301
    15  H    0.000000   0.000000   0.000000   0.000000  -0.000005  -0.000001
    16  H    0.000000   0.000000   0.000000   0.000000   0.000016   0.000066
    17  C    0.000000   0.000000   0.000000   0.000000  -0.000008   0.000001
    18  H    0.000000   0.000000   0.000000   0.000000   0.000000   0.000000
    19  C    0.000000   0.000000   0.000000   0.000000   0.000000   0.000000
    20  H    0.000000   0.000000   0.000000   0.000000   0.000000   0.000000
    21  H    0.000000   0.000000   0.000000   0.000000   0.000000   0.000000
    22  N    0.000000   0.000000   0.000000   0.000000   0.000000   0.000000
    23  H    0.000000   0.000000   0.000000   0.000000   0.000000   0.000000
    24  H    0.000000   0.000000   0.000000   0.000000   0.000000   0.000000
    25  H    0.000000   0.000000   0.000000   0.000000   0.000000   0.000000
    26  O    0.000000   0.000000   0.000000   0.000000   0.000000   0.000002
    27  C   -0.000004   0.000000   0.000000   0.000000   0.000019  -0.000965
    28  H    0.000000   0.000000   0.000000   0.000000   0.000005  -0.000008
    29  H    0.000000   0.000000   0.000000   0.000000  -0.000001   0.000003
    30  H    0.000022   0.000000  -0.000002   0.000000  -0.000021   0.004524
    31  C   -0.000073   0.000007  -0.000005   0.000000   0.002711   0.000272
    32  O    0.000000   0.000000   0.000000   0.000000  -0.000083  -0.000001
    33  O   -0.000027   0.000004   0.000000   0.000000   0.000223   0.000000
               7          8          9         10         11         12
     1  C   -0.122491  -0.001351   0.004967   0.000238  -0.000251   0.000084
     2  H    0.002713   0.000178  -0.000159  -0.000017  -0.000002   0.000002
     3  H    0.002554   0.000500  -0.000251  -0.000007   0.000073  -0.000034
     4  H    0.004649  -0.000022  -0.000096  -0.000003   0.000005   0.000006
     5  C    0.295507  -0.017895  -0.036003  -0.004367  -0.005254   0.001543
     6  O   -0.113511   0.002464   0.007654   0.006396  -0.002515   0.004372
     7  N    7.311875   0.321426   0.189104  -0.036912  -0.062609  -0.006560
     8  H    0.321426   0.328917  -0.027848   0.003380   0.001184  -0.000094
     9  C    0.189104  -0.027848   5.287644   0.403531   0.289114  -0.040134
    10  H   -0.036912   0.003380   0.403531   0.494521  -0.054543  -0.000357
    11  C   -0.062609   0.001184   0.289114  -0.054543   5.187559   0.398136
    12  H   -0.006560  -0.000094  -0.040134  -0.000357   0.398136   0.567288
    13  H    0.001102   0.000547  -0.032326   0.003974   0.385051  -0.031313
    14  C    0.004420  -0.000040  -0.036412  -0.003048   0.317341  -0.049200
    15  H    0.000071   0.000005  -0.002849   0.000210  -0.028164   0.003676
    16  H    0.000029   0.000001  -0.001984   0.002795  -0.037926  -0.000633
    17  C   -0.000056   0.000002   0.003199  -0.000100  -0.042988  -0.002965
    18  H   -0.000003   0.000000  -0.000016  -0.000003  -0.003725   0.001083
    19  C    0.000000   0.000000  -0.000073   0.000005   0.003688   0.000147
    20  H    0.000000   0.000000  -0.000002   0.000000  -0.000016  -0.000005
    21  H    0.000000   0.000000  -0.000004  -0.000002   0.000008   0.000006
    22  N    0.000000   0.000000   0.000000   0.000000  -0.000073   0.000001
    23  H    0.000000   0.000000   0.000000   0.000000  -0.000002   0.000000
    24  H    0.000000   0.000000   0.000000   0.000000   0.000001   0.000000
    25  H    0.000000   0.000000   0.000000   0.000000  -0.000018  -0.000003
    26  O    0.000000   0.000000  -0.000077  -0.000001   0.002017   0.000148
    27  C    0.000022   0.000000  -0.000029   0.000014  -0.000115  -0.002540
    28  H    0.000001   0.000000  -0.000007  -0.000003  -0.000009   0.000013
    29  H    0.000000   0.000000  -0.000004   0.000000   0.000112   0.000250
    30  H   -0.000140  -0.000001   0.000485   0.000050  -0.003004  -0.002104
    31  C   -0.024621   0.000100   0.267335  -0.019992  -0.045596   0.002274
    32  O    0.000998   0.000083  -0.120214   0.000417   0.013751   0.000361
    33  O    0.002610   0.006962  -0.119085   0.000685   0.003452  -0.000049
              13         14         15         16         17         18
     1  C    0.000001  -0.000001   0.000000   0.000000   0.000000   0.000000
     2  H    0.000000   0.000000   0.000000   0.000000   0.000000   0.000000
     3  H   -0.000005   0.000000   0.000000   0.000000   0.000000   0.000000
     4  H    0.000000   0.000000   0.000000   0.000000   0.000000   0.000000
     5  C    0.000238   0.000111  -0.000005   0.000016  -0.000008   0.000000
     6  O    0.000071  -0.000301  -0.000001   0.000066   0.000001   0.000000
     7  N    0.001102   0.004420   0.000071   0.000029  -0.000056  -0.000003
     8  H    0.000547  -0.000040   0.000005   0.000001   0.000002   0.000000
     9  C   -0.032326  -0.036412  -0.002849  -0.001984   0.003199  -0.000016
    10  H    0.003974  -0.003048   0.000210   0.002795  -0.000100  -0.000003
    11  C    0.385051   0.317341  -0.028164  -0.037926  -0.042988  -0.003725
    12  H   -0.031313  -0.049200   0.003676  -0.000633  -0.002965   0.001083
    13  H    0.534971  -0.033684  -0.002962   0.003626  -0.003860   0.002254
    14  C   -0.033684   5.263547   0.378578   0.389657   0.300317  -0.043603
    15  H   -0.002962   0.378578   0.445320  -0.019001  -0.043512   0.002258
    16  H    0.003626   0.389657  -0.019001   0.514241  -0.041916   0.004602
    17  C   -0.003860   0.300317  -0.043512  -0.041916   4.899746   0.398605
    18  H    0.002254  -0.043603   0.002258   0.004602   0.398605   0.560367
    19  C   -0.000204  -0.044825  -0.000713  -0.003993   0.336057  -0.050318
    20  H    0.000049  -0.000186  -0.000237   0.000126  -0.028499   0.000493
    21  H    0.000001  -0.003195   0.000934   0.001965  -0.031044   0.004012
    22  N    0.000000   0.003454   0.000212  -0.000191  -0.053055  -0.003744
    23  H   -0.000001  -0.000031   0.000008   0.000002  -0.000269   0.002147
    24  H    0.000000  -0.000038  -0.000007   0.000002   0.003368  -0.000190
    25  H    0.000000   0.000514  -0.000033   0.000020  -0.009143   0.000980
    26  O    0.000054  -0.038826   0.002042  -0.001002   0.170475  -0.046851
    27  C    0.000010  -0.002339   0.000040  -0.000750  -0.039479  -0.002696
    28  H    0.000002  -0.001111   0.000001   0.000302  -0.005537   0.006162
    29  H   -0.000002  -0.000158   0.000005  -0.000086   0.003922  -0.000149
    30  H    0.000081   0.003146  -0.000063  -0.000397  -0.002090  -0.000598
    31  C   -0.002235  -0.000860   0.001633   0.000257   0.000014   0.000002
    32  O    0.006426  -0.011520   0.020067   0.000349   0.000506   0.000005
    33  O    0.000045  -0.000042   0.000103  -0.000001   0.000001   0.000000
              19         20         21         22         23         24
     1  C    0.000000   0.000000   0.000000   0.000000   0.000000   0.000000
     2  H    0.000000   0.000000   0.000000   0.000000   0.000000   0.000000
     3  H    0.000000   0.000000   0.000000   0.000000   0.000000   0.000000
     4  H    0.000000   0.000000   0.000000   0.000000   0.000000   0.000000
     5  C    0.000000   0.000000   0.000000   0.000000   0.000000   0.000000
     6  O    0.000000   0.000000   0.000000   0.000000   0.000000   0.000000
     7  N    0.000000   0.000000   0.000000   0.000000   0.000000   0.000000
     8  H    0.000000   0.000000   0.000000   0.000000   0.000000   0.000000
     9  C   -0.000073  -0.000002  -0.000004   0.000000   0.000000   0.000000
    10  H    0.000005   0.000000  -0.000002   0.000000   0.000000   0.000000
    11  C    0.003688  -0.000016   0.000008  -0.000073  -0.000002   0.000001
    12  H    0.000147  -0.000005   0.000006   0.000001   0.000000   0.000000
    13  H   -0.000204   0.000049   0.000001   0.000000  -0.000001   0.000000
    14  C   -0.044825  -0.000186  -0.003195   0.003454  -0.000031  -0.000038
    15  H   -0.000713  -0.000237   0.000934   0.000212   0.000008  -0.000007
    16  H   -0.003993   0.000126   0.001965  -0.000191   0.000002   0.000002
    17  C    0.336057  -0.028499  -0.031044  -0.053055  -0.000269   0.003368
    18  H   -0.050318   0.000493   0.004012  -0.003744   0.002147  -0.000190
    19  C    5.211143   0.396312   0.397610   0.105376  -0.015330  -0.018011
    20  H    0.396312   0.420451  -0.015393  -0.033208  -0.001833  -0.001208
    21  H    0.397610  -0.015393   0.428007  -0.040025   0.002699  -0.002594
    22  N    0.105376  -0.033208  -0.040025   7.002108   0.306431   0.314242
    23  H   -0.015330  -0.001833   0.002699   0.306431   0.276390  -0.011308
    24  H   -0.018011  -0.001208  -0.002594   0.314242  -0.011308   0.272811
    25  H   -0.024185   0.002520  -0.000320   0.283682  -0.007636  -0.009453
    26  O   -0.068491   0.002450   0.001405  -0.020439   0.000313   0.000300
    27  C    0.005075  -0.000080  -0.000101   0.000300  -0.000035   0.000004
    28  H    0.000103   0.000012   0.000017  -0.000095   0.000016  -0.000002
    29  H   -0.000114   0.000001   0.000002   0.000071  -0.000001  -0.000001
    30  H   -0.000394   0.000000  -0.000016  -0.000004   0.000001   0.000001
    31  C   -0.000002   0.000000   0.000001   0.000000   0.000000   0.000000
    32  O   -0.000060  -0.000005   0.000001   0.000000   0.000000   0.000000
    33  O    0.000000   0.000000   0.000000   0.000000   0.000000   0.000000
              25         26         27         28         29         30
     1  C    0.000000   0.000000  -0.000004   0.000000   0.000000   0.000022
     2  H    0.000000   0.000000   0.000000   0.000000   0.000000   0.000000
     3  H    0.000000   0.000000   0.000000   0.000000   0.000000  -0.000002
     4  H    0.000000   0.000000   0.000000   0.000000   0.000000   0.000000
     5  C    0.000000   0.000000   0.000019   0.000005  -0.000001  -0.000021
     6  O    0.000000   0.000002  -0.000965  -0.000008   0.000003   0.004524
     7  N    0.000000   0.000000   0.000022   0.000001   0.000000  -0.000140
     8  H    0.000000   0.000000   0.000000   0.000000   0.000000  -0.000001
     9  C    0.000000  -0.000077  -0.000029  -0.000007  -0.000004   0.000485
    10  H    0.000000  -0.000001   0.000014  -0.000003   0.000000   0.000050
    11  C   -0.000018   0.002017  -0.000115  -0.000009   0.000112  -0.003004
    12  H   -0.000003   0.000148  -0.002540   0.000013   0.000250  -0.002104
    13  H    0.000000   0.000054   0.000010   0.000002  -0.000002   0.000081
    14  C    0.000514  -0.038826  -0.002339  -0.001111  -0.000158   0.003146
    15  H   -0.000033   0.002042   0.000040   0.000001   0.000005  -0.000063
    16  H    0.000020  -0.001002  -0.000750   0.000302  -0.000086  -0.000397
    17  C   -0.009143   0.170475  -0.039479  -0.005537   0.003922  -0.002090
    18  H    0.000980  -0.046851  -0.002696   0.006162  -0.000149  -0.000598
    19  C   -0.024185  -0.068491   0.005075   0.000103  -0.000114  -0.000394
    20  H    0.002520   0.002450  -0.000080   0.000012   0.000001   0.000000
    21  H   -0.000320   0.001405  -0.000101   0.000017   0.000002  -0.000016
    22  N    0.283682  -0.020439   0.000300  -0.000095   0.000071  -0.000004
    23  H   -0.007636   0.000313  -0.000035   0.000016  -0.000001   0.000001
    24  H   -0.009453   0.000300   0.000004  -0.000002  -0.000001   0.000001
    25  H    0.246379   0.035926  -0.001367   0.000139  -0.000364   0.000118
    26  O    0.035926   8.586011   0.173509  -0.037951  -0.033471  -0.032280
    27  C   -0.001367   0.173509   4.884172   0.391153   0.397865   0.395163
    28  H    0.000139  -0.037951   0.391153   0.551532  -0.030569  -0.032934
    29  H   -0.000364  -0.033471   0.397865  -0.030569   0.508165  -0.026058
    30  H    0.000118  -0.032280   0.395163  -0.032934  -0.026058   0.460538
    31  C    0.000000   0.000000  -0.000001   0.000000   0.000000   0.000003
    32  O    0.000000   0.000000   0.000000   0.000000   0.000000   0.000000
    33  O    0.000000   0.000000   0.000000   0.000000   0.000000   0.000000
              31         32         33
     1  C   -0.000073   0.000000  -0.000027
     2  H    0.000007   0.000000   0.000004
     3  H   -0.000005   0.000000   0.000000
     4  H    0.000000   0.000000   0.000000
     5  C    0.002711  -0.000083   0.000223
     6  O    0.000272  -0.000001   0.000000
     7  N   -0.024621   0.000998   0.002610
     8  H    0.000100   0.000083   0.006962
     9  C    0.267335  -0.120214  -0.119085
    10  H   -0.019992   0.000417   0.000685
    11  C   -0.045596   0.013751   0.003452
    12  H    0.002274   0.000361  -0.000049
    13  H   -0.002235   0.006426   0.000045
    14  C   -0.000860  -0.011520  -0.000042
    15  H    0.001633   0.020067   0.000103
    16  H    0.000257   0.000349  -0.000001
    17  C    0.000014   0.000506   0.000001
    18  H    0.000002   0.000005   0.000000
    19  C   -0.000002  -0.000060   0.000000
    20  H    0.000000  -0.000005   0.000000
    21  H    0.000001   0.000001   0.000000
    22  N    0.000000   0.000000   0.000000
    23  H    0.000000   0.000000   0.000000
    24  H    0.000000   0.000000   0.000000
    25  H    0.000000   0.000000   0.000000
    26  O    0.000000   0.000000   0.000000
    27  C   -0.000001   0.000000   0.000000
    28  H    0.000000   0.000000   0.000000
    29  H    0.000000   0.000000   0.000000
    30  H    0.000003   0.000000   0.000000
    31  C    4.053980   0.518549   0.507607
    32  O    0.518549   8.359962  -0.095755
    33  O    0.507607  -0.095755   8.502403
 Mulliken charges:
               1
     1  C   -0.580924
     2  H    0.207851
     3  H    0.170314
     4  H    0.196687
     5  C    0.739617
     6  O   -0.642409
     7  N   -0.770180
     8  H    0.381501
     9  C   -0.035457
    10  H    0.203141
    11  C   -0.314683
    12  H    0.156602
    13  H    0.168088
    14  C   -0.391665
    15  H    0.242384
    16  H    0.189824
    17  C    0.188306
    18  H    0.168925
    19  C   -0.228803
    20  H    0.258254
    21  H    0.256027
    22  N   -0.865041
    23  H    0.448439
    24  H    0.452082
    25  H    0.482240
    26  O   -0.695263
    27  C   -0.196846
    28  H    0.158767
    29  H    0.180581
    30  H    0.235971
    31  C    0.738642
    32  O   -0.693836
    33  O   -0.809135
 Sum of Mulliken charges =   0.00000
 Mulliken charges with hydrogens summed into heavy atoms:
               1
     1  C   -0.006071
     5  C    0.739617
     6  O   -0.642409
     7  N   -0.388679
     9  C    0.167684
    11  C    0.010007
    14  C    0.040543
    17  C    0.357231
    19  C    0.285478
    22  N    0.517720
    26  O   -0.695263
    27  C    0.378472
    31  C    0.738642
    32  O   -0.693836
    33  O   -0.809135
 Electronic spatial extent (au):  <R**2>=           4576.5435
 Charge=              0.0000 electrons
 Dipole moment (field-independent basis, Debye):
    X=            -24.7355    Y=             -9.1635    Z=              4.8331  Tot=             26.8174
 Quadrupole moment (field-independent basis, Debye-Ang):
   XX=            -20.0505   YY=           -125.9694   ZZ=            -87.5660
   XY=            -29.4320   XZ=              3.8283   YZ=             -2.2663
 Traceless Quadrupole moment (field-independent basis, Debye-Ang):
   XX=             57.8114   YY=            -48.1074   ZZ=             -9.7040
   XY=            -29.4320   XZ=              3.8283   YZ=             -2.2663
 Octapole moment (field-independent basis, Debye-Ang**2):
  XXX=           -501.1950  YYY=           -111.3518  ZZZ=              5.0093  XYY=           -100.6301
  XXY=            -44.3080  XXZ=             61.3576  XZZ=            -20.1431  YZZ=              4.3979
  YYZ=             11.1606  XYZ=              2.4607
 Hexadecapole moment (field-independent basis, Debye-Ang**3):
 XXXX=          -1710.7175 YYYY=          -1845.2742 ZZZZ=           -207.9362 XXXY=           -400.8680
 XXXZ=            -57.9855 YYYX=           -156.5453 YYYZ=              6.5504 ZZZX=            -13.1475
 ZZZY=              2.0893 XXYY=          -1039.6261 XXZZ=           -633.3462 YYZZ=           -302.3177
 XXYZ=             19.6806 YYXZ=             42.3797 ZZXY=              5.7081
 N-N= 1.069097867391D+03 E-N=-3.922999927420D+03  KE= 7.582680210421D+02
 Calling FoFJK, ICntrl=      2127 FMM=F ISym2X=0 I1Cent= 0 IOpClX= 0 NMat=1 NMatS=1 NMatT=0.
 ***** Axes restored to original set *****
 -------------------------------------------------------------------
 Center     Atomic                   Forces (Hartrees/Bohr)
 Number     Number              X              Y              Z
 -------------------------------------------------------------------
      1        6          -0.000382938   -0.001768572    0.001814374
      2        1           0.000318691    0.001086680   -0.000293182
      3        1           0.000267063    0.001083899    0.000007727
      4        1          -0.000077773    0.001091430   -0.000357047
      5        6           0.014924515   -0.026829190    0.010902491
      6        8          -0.011118084    0.009198773   -0.008637201
      7        7          -0.001405570    0.019367204   -0.018973174
      8        1          -0.005580564   -0.004217404    0.007871242
      9        6          -0.002353328   -0.004714189    0.002806055
     10        1           0.000899547    0.000163128    0.000385688
     11        6          -0.000814109    0.005296900    0.000120481
     12        1           0.000136209    0.000843500   -0.003801790
     13        1          -0.000063117   -0.001284148    0.000253678
     14        6           0.001777293   -0.000140489   -0.000343954
     15        1           0.001160611    0.000760496    0.002498013
     16        1          -0.000240476    0.000030251   -0.000077802
     17        6           0.000690125   -0.001052597    0.004528461
     18        1           0.000181316   -0.000079229   -0.000414212
     19        6           0.000265266    0.001255406    0.003483569
     20        1           0.000016826    0.000331635    0.000184496
     21        1           0.000059360    0.000209488    0.000025419
     22        7          -0.000553327   -0.001681415   -0.003976450
     23        1          -0.000334588    0.000395275    0.001036770
     24        1           0.000396683    0.000730507    0.000416750
     25        1           0.000462171    0.000682152    0.001539958
     26        8          -0.002094944    0.001667409   -0.005440764
     27        6          -0.000222987   -0.001265061    0.002096207
     28        1           0.000009429    0.000046235    0.000377575
     29        1          -0.000497898   -0.000005403   -0.000873640
     30        1           0.001020424   -0.000006293    0.000113298
     31        6           0.004412998    0.023598505    0.156856595
     32        8           0.001909280   -0.021901706   -0.039451147
     33        8          -0.003168104   -0.002893175   -0.114678486
 -------------------------------------------------------------------
 Cartesian Forces:  Max     0.156856595 RMS     0.020790345
 -----------------------------------------------------------------------------------------------
                       Internal Coordinate Forces (Hartree/Bohr or radian)
  Cent   Atom   N1       Length/X         N2         Alpha/Y        N3         Beta/Z          J
 -----------------------------------------------------------------------------------------------
      1  C 
      2  H        1  -0.000293(     1)
      3  H        1   0.000252(     2)      2  -0.000538(    33)
      4  H        1   0.001049(     3)      2  -0.001228(    34)      3   0.002308(    64)     0
      5  C        1   0.001669(     4)      4  -0.001785(    35)      3   0.000384(    65)     0
      6  O        5   0.014370(     5)      1  -0.019739(    36)      4  -0.000099(    66)     0
      7  N        5  -0.016612(     6)      1  -0.017346(    37)      6  -0.001552(    67)     0
      8  H        7  -0.002215(     7)      5   0.010272(    38)      1   0.014479(    68)     0
      9  C        7  -0.004651(     8)      5   0.015535(    39)      1  -0.017575(    69)     0
     10  H        9  -0.000863(     9)      7  -0.000789(    40)      5  -0.000598(    70)     0
     11  C        9  -0.002489(    10)      7  -0.000683(    41)      5  -0.001630(    71)     0
     12  H       11   0.002538(    11)      9   0.005902(    42)      7  -0.001226(    72)     0
     13  H       11   0.000375(    12)      9  -0.000348(    43)      7   0.002402(    73)     0
     14  C       11  -0.004847(    13)      9  -0.010916(    44)      7  -0.007323(    74)     0
     15  H       14   0.000493(    14)     11  -0.005362(    45)      9   0.001995(    75)     0
     16  H       14   0.000224(    15)     11   0.000185(    46)      9   0.000152(    76)     0
     17  C       14  -0.003211(    16)     11  -0.000279(    47)      9   0.000526(    77)     0
     18  H       17   0.000254(    17)     14   0.000767(    48)     11   0.000170(    78)     0
     19  C       17  -0.002685(    18)     14  -0.002977(    49)     11   0.000334(    79)     0
     20  H       19  -0.000156(    19)     17  -0.000682(    50)     14   0.000170(    80)     0
     21  H       19  -0.000106(    20)     17  -0.000386(    51)     14   0.000058(    81)     0
     22  N       19   0.000983(    21)     17  -0.003401(    52)     14  -0.000391(    82)     0
     23  H       22  -0.000686(    22)     19  -0.001571(    53)     17  -0.000780(    83)     0
     24  H       22  -0.000925(    23)     19  -0.000158(    54)     17  -0.000070(    84)     0
     25  H       22  -0.000137(    24)     19  -0.003048(    55)     17   0.001302(    85)     0
     26  O       17   0.003372(    25)     14   0.002489(    56)     11  -0.000708(    86)     0
     27  C       26  -0.001030(    26)     17  -0.003890(    57)     14  -0.001881(    87)     0
     28  H       27  -0.000042(    27)     26   0.000219(    58)     17  -0.000697(    88)     0
     29  H       27   0.000903(    28)     26  -0.000800(    59)     17  -0.000400(    89)     0
     30  H       27  -0.000198(    29)     26   0.000282(    60)     17   0.001898(    90)     0
     31  C        9   0.003319(    30)      7   0.004584(    61)      5  -0.015944(    91)     0
     32  O       31   0.035144(    31)      9  -0.064536(    62)      7  -0.001598(    92)     0
     33  O       31  -0.113070(    32)      9  -0.049183(    63)      7  -0.006462(    93)     0
 -----------------------------------------------------------------------------------------------
 Internal  Forces:  Max     0.113069603 RMS     0.015864127

 GradGradGradGradGradGradGradGradGradGradGradGradGradGradGradGradGradGrad
 Berny optimization.
 Search for a local minimum.
 Step number   1 out of a maximum of  103
 All quantities printed in internal units (Hartrees-Bohrs-Radians)
 Second derivative matrix not updated -- first step.
 ITU=  0
     Eigenvalues ---    0.00756   0.00822   0.00860   0.00921   0.00980
     Eigenvalues ---    0.01185   0.01485   0.01634   0.02186   0.03679
     Eigenvalues ---    0.04352   0.07933   0.08178   0.10962   0.12786
     Eigenvalues ---    0.13320   0.13765   0.14111   0.14346   0.14706
     Eigenvalues ---    0.14914   0.15927   0.16418   0.16763   0.17138
     Eigenvalues ---    0.17338   0.17665   0.17898   0.19129   0.19973
     Eigenvalues ---    0.20253   0.21713   0.25000   0.25000   0.25009
     Eigenvalues ---    0.28893   0.29016   0.29030   0.29176   0.29214
     Eigenvalues ---    0.29815   0.31215   0.31577   0.32412   0.33579
     Eigenvalues ---    0.34733   0.35242   0.35348   0.35384   0.35385
     Eigenvalues ---    0.35418   0.35532   0.35674   0.35870   0.35907
     Eigenvalues ---    0.36007   0.36007   0.36092   0.36105   0.36123
     Eigenvalues ---    0.36629   0.37426   0.37911   0.38193   0.38696
     Eigenvalues ---    0.38722   0.39046   0.39317   0.39544   0.40036
     Eigenvalues ---    0.40116   0.41519   0.41810   0.42677   0.42920
     Eigenvalues ---    0.42938   0.42988   0.43126   0.45100   0.45194
     Eigenvalues ---    0.45994   0.46074   0.48317   0.51263   0.51616
     Eigenvalues ---    0.55401   0.57006   0.57013   0.60403   0.74990
     Eigenvalues ---    0.74996   1.02615   1.04750
 RFO step:  Lambda=-3.98734448D-02 EMin= 7.55705719D-03
 Linear search not attempted -- first point.
 Maximum step size (   0.300) exceeded in Quadratic search.
    -- Step size scaled by   0.918
 Variable       Old X    -DE/DX   Delta X   Delta X   Delta X     New X
                                 (Linear)    (Quad)   (Total)
    B1        2.05001  -0.00029   0.00000  -0.00068  -0.00068   2.04933
    B2        2.05113   0.00025   0.00000   0.00059   0.00059   2.05172
    B3        2.03890   0.00105   0.00000   0.00240   0.00240   2.04130
    B4        2.85603   0.00167   0.00000   0.00435   0.00435   2.86039
    B5        2.26795   0.01437   0.00000   0.01214   0.01214   2.28008
    B6        2.58269  -0.01661   0.00000  -0.02744  -0.02744   2.55525
    B7        1.88303  -0.00222   0.00000  -0.00389  -0.00389   1.87914
    B8        2.74085  -0.00465   0.00000  -0.01013  -0.01013   2.73072
    B9        2.04820  -0.00086   0.00000  -0.00200  -0.00200   2.04620
   B10        2.90227  -0.00249   0.00000  -0.00695  -0.00695   2.89532
   B11        2.04286   0.00254   0.00000   0.00585   0.00585   2.04870
   B12        2.05056   0.00038   0.00000   0.00088   0.00088   2.05144
   B13        2.89636  -0.00485   0.00000  -0.01342  -0.01342   2.88294
   B14        2.04594   0.00049   0.00000   0.00114   0.00114   2.04708
   B15        2.05283   0.00022   0.00000   0.00053   0.00053   2.05336
   B16        2.89970  -0.00321   0.00000  -0.00894  -0.00894   2.89077
   B17        2.06111   0.00025   0.00000   0.00060   0.00060   2.06171
   B18        2.88334  -0.00268   0.00000  -0.00729  -0.00729   2.87605
   B19        2.03938  -0.00016   0.00000  -0.00036  -0.00036   2.03902
   B20        2.04070  -0.00011   0.00000  -0.00024  -0.00024   2.04046
   B21        2.84925   0.00098   0.00000   0.00254   0.00254   2.85179
   B22        1.90838  -0.00069   0.00000  -0.00126  -0.00126   1.90712
   B23        1.90748  -0.00093   0.00000  -0.00170  -0.00170   1.90578
   B24        1.91751  -0.00014   0.00000  -0.00026  -0.00026   1.91726
   B25        2.65159   0.00337   0.00000   0.00631   0.00631   2.65790
   B26        2.67514  -0.00103   0.00000  -0.00201  -0.00201   2.67314
   B27        2.05054  -0.00004   0.00000  -0.00010  -0.00010   2.05045
   B28        2.03918   0.00090   0.00000   0.00207   0.00207   2.04125
   B29        2.04227  -0.00020   0.00000  -0.00046  -0.00046   2.04181
   B30        2.89559   0.00332   0.00000   0.00918   0.00918   2.90477
   B31        2.27609   0.03514   0.00000   0.03028   0.03028   2.30638
   B32        2.53386  -0.11307   0.00000  -0.17025  -0.17025   2.36360
    A1        1.88364  -0.00054   0.00000  -0.00109  -0.00109   1.88255
    A2        1.91826  -0.00123   0.00000  -0.00377  -0.00377   1.91448
    A3        1.91004  -0.00179   0.00000  -0.00238  -0.00238   1.90766
    A4        2.15166  -0.01974   0.00000  -0.02531  -0.02531   2.12634
    A5        2.01255  -0.01735   0.00000  -0.01788  -0.01788   1.99467
    A6        2.06412   0.01027   0.00000   0.02110   0.02110   2.08522
    A7        2.09742   0.01554   0.00000   0.03610   0.03610   2.13352
    A8        1.84907  -0.00079   0.00000   0.00352   0.00352   1.85259
    A9        1.96872  -0.00068   0.00000  -0.01096  -0.01096   1.95775
   A10        1.86655   0.00590   0.00000   0.03523   0.03523   1.90178
   A11        1.91403  -0.00035   0.00000  -0.00435  -0.00435   1.90968
   A12        1.96818  -0.01092   0.00000  -0.03479  -0.03479   1.93339
   A13        1.88715  -0.00536   0.00000  -0.01941  -0.01941   1.86775
   A14        1.93184   0.00019   0.00000   0.00280   0.00280   1.93463
   A15        1.99203  -0.00028   0.00000   0.00294   0.00294   1.99498
   A16        1.92435   0.00077   0.00000   0.00185   0.00185   1.92620
   A17        1.90798  -0.00298   0.00000  -0.00832  -0.00832   1.89967
   A18        1.97188  -0.00068   0.00000  -0.00015  -0.00015   1.97173
   A19        1.93057  -0.00039   0.00000   0.00013   0.00013   1.93069
   A20        1.89263  -0.00340   0.00000  -0.00883  -0.00883   1.88379
   A21        1.95361  -0.00157   0.00000  -0.00486  -0.00486   1.94875
   A22        1.96871  -0.00016   0.00000   0.00409   0.00409   1.97280
   A23        1.86882  -0.00305   0.00000  -0.01102  -0.01102   1.85779
   A24        2.00858   0.00249   0.00000   0.00703   0.00703   2.01561
   A25        2.06071  -0.00389   0.00000  -0.01233  -0.01233   2.04838
   A26        1.92956   0.00022   0.00000  -0.00073  -0.00073   1.92883
   A27        1.85764  -0.00080   0.00000  -0.00123  -0.00123   1.85641
   A28        1.94419   0.00028   0.00000   0.00104   0.00104   1.94523
   A29        1.93681   0.00458   0.00000   0.00905   0.00905   1.94586
   A30        2.10729  -0.06454   0.00000  -0.09032  -0.09032   2.01698
   A31        2.02588  -0.04918   0.00000  -0.04166  -0.04166   1.98421
    D1       -2.09043   0.00231   0.00000   0.00987   0.00987  -2.08056
    D2       -2.11453   0.00038   0.00000  -0.00106  -0.00106  -2.11559
    D3       -0.01693  -0.00010   0.00000  -0.00140  -0.00140  -0.01833
    D4       -3.12351  -0.00155   0.00000  -0.00510  -0.00510  -3.12861
    D5       -0.27008   0.01448   0.00000   0.05141   0.05141  -0.21868
    D6       -3.05788  -0.01758   0.00000  -0.08403  -0.08403  -3.14191
    D7       -0.77169  -0.00060   0.00000  -0.05398  -0.05398  -0.82567
    D8        1.29260  -0.00163   0.00000  -0.06066  -0.06066   1.23194
    D9       -0.65338  -0.00123   0.00000  -0.04128  -0.04128  -0.69466
   D10        1.37973   0.00240   0.00000  -0.01565  -0.01565   1.36408
   D11       -2.76637  -0.00732   0.00000  -0.06089  -0.06089  -2.82727
   D12       -1.20396   0.00199   0.00000   0.02375   0.02375  -1.18020
   D13        0.83621   0.00015   0.00000   0.01527   0.01527   0.85148
   D14        2.94434   0.00053   0.00000   0.02449   0.02449   2.96883
   D15        0.48029   0.00017   0.00000   0.00007   0.00007   0.48036
   D16        2.57516   0.00033   0.00000  -0.00317  -0.00317   2.57199
   D17       -1.23395   0.00017   0.00000  -0.00165  -0.00165  -1.23560
   D18        0.92689   0.00006   0.00000   0.00139   0.00139   0.92828
   D19        2.95298  -0.00039   0.00000  -0.00108  -0.00108   2.95190
   D20        1.24684  -0.00078   0.00000  -0.00217  -0.00217   1.24466
   D21       -2.90983  -0.00007   0.00000   0.00375   0.00375  -2.90608
   D22       -0.80560   0.00130   0.00000   0.00711   0.00711  -0.79849
   D23       -1.68667  -0.00071   0.00000  -0.00542  -0.00542  -1.69209
   D24        1.11703  -0.00188   0.00000  -0.01680  -0.01680   1.10024
   D25        0.95806  -0.00070   0.00000   0.00240   0.00240   0.96046
   D26        3.02953  -0.00040   0.00000   0.00259   0.00259   3.03212
   D27       -1.17611   0.00190   0.00000   0.00845   0.00845  -1.16767
   D28       -2.78342  -0.01594   0.00000  -0.08955  -0.08955  -2.87297
   D29       -2.51298  -0.00160   0.00000  -0.05643  -0.05643  -2.56941
   D30        0.64784  -0.00646   0.00000  -0.08443  -0.08443   0.56341
         Item               Value     Threshold  Converged?
 Maximum Force            0.113070     0.000450     NO 
 RMS     Force            0.015864     0.000300     NO 
 Maximum Displacement     0.170251     0.001800     NO 
 RMS     Displacement     0.031109     0.001200     NO 
 Predicted change in Energy=-2.159859D-02
 GradGradGradGradGradGradGradGradGradGradGradGradGradGradGradGradGradGrad

 ---------------------------------------------------------------------------------------------------
                            Z-MATRIX (ANGSTROMS AND DEGREES)
   CD    Cent   Atom    N1       Length/X        N2       Alpha/Y        N3        Beta/Z          J
 ---------------------------------------------------------------------------------------------------
      1      1  C 
      2      2  H        1   1.084458(     1)
      3      3  H        1   1.085725(     2)      2  107.862(    33)
      4      4  H        1   1.080208(     3)      2  109.692(    34)      3 -119.207(    64)      0
      5      5  C        1   1.513652(     4)      4  109.301(    35)      3 -121.215(    65)      0
      6      6  O        5   1.206569(     5)      1  121.831(    36)      4   -1.050(    66)      0
      7      7  N        5   1.352179(     6)      1  114.286(    37)      6 -179.256(    67)      0
      8      8  H        7   0.994398(     7)      5  119.474(    38)      1  -12.529(    68)      0
      9      9  C        7   1.445035(     8)      5  122.242(    39)      1 -180.018(    69)      0
     10     10  H        9   1.082802(     9)      7  106.146(    40)      5  -47.307(    70)      0
     11     11  C        9   1.532138(    10)      7  112.171(    41)      5   70.585(    71)      0
     12     12  H       11   1.084128(    11)      9  108.964(    42)      7  -39.801(    72)      0
     13     13  H       11   1.085573(    12)      9  109.416(    43)      7   78.156(    73)      0
     14     14  C       11   1.525586(    13)      9  110.775(    44)      7 -161.991(    74)      0
     15     15  H       14   1.083269(    14)     11  107.014(    45)      9  -67.621(    75)      0
     16     16  H       14   1.086589(    15)     11  110.846(    46)      9   48.786(    76)      0
     17     17  C       14   1.529728(    16)     11  114.304(    47)      9  170.102(    77)      0
     18     18  H       17   1.091011(    17)     14  110.363(    48)     11   27.523(    78)      0
     19     19  C       17   1.521938(    18)     14  108.843(    49)     11  147.364(    79)      0
     20     20  H       19   1.079003(    19)     17  112.972(    50)     14  -70.794(    80)      0
     21     21  H       19   1.079763(    20)     17  110.621(    51)     14   53.186(    81)      0
     22     22  N       19   1.509100(    21)     17  107.933(    52)     14  169.131(    82)      0
     23     23  H       22   1.009204(    22)     19  111.655(    53)     17   71.314(    83)      0
     24     24  H       22   1.008495(    23)     19  113.033(    54)     17 -166.506(    84)      0
     25     25  H       22   1.014570(    24)     19  106.444(    55)     17  -45.750(    85)      0
     26     26  O       17   1.406502(    25)     14  115.486(    56)     11  -96.950(    86)      0
     27     27  C       26   1.414564(    26)     17  117.364(    57)     14   63.039(    87)      0
     28     28  H       27   1.085049(    27)     26  110.514(    58)     17   55.030(    88)      0
     29     29  H       27   1.080183(    28)     26  106.365(    59)     17  173.728(    89)      0
[...]
     4  H    0.382153  -0.020432  -0.023770   0.487644  -0.029155   0.001555
     5  C    0.372064  -0.026451  -0.040084  -0.029155   4.129560   0.600417
     6  O   -0.075826   0.000421   0.002814   0.001555   0.600417   8.185986
     7  N   -0.111360   0.000708   0.006909   0.002501   0.276944  -0.104308
     8  H   -0.000790   0.000036   0.001171   0.000007  -0.013624   0.002088
     9  C    0.004991  -0.000132   0.000130  -0.000092  -0.027862   0.009030
    10  H    0.000122   0.000013  -0.000005  -0.000009  -0.000251   0.003888
    11  C   -0.000294  -0.000005  -0.000011   0.000024  -0.003287  -0.001813
    12  H    0.000094   0.000000  -0.000007  -0.000004   0.001329   0.003974
    13  H   -0.000065   0.000001   0.000009  -0.000003   0.000612  -0.000231
    14  C    0.000003   0.000000   0.000000   0.000000   0.000119   0.000046
    15  H    0.000000   0.000000   0.000000   0.000000   0.000001   0.000000
    16  H    0.000000   0.000000   0.000000   0.000000  -0.000004   0.000000
    17  C    0.000000   0.000000   0.000000   0.000000  -0.000005  -0.000001
    18  H    0.000000   0.000000   0.000000   0.000000   0.000001   0.000000
    19  C    0.000000   0.000000   0.000000   0.000000   0.000000   0.000000
    20  H    0.000000   0.000000   0.000000   0.000000   0.000000   0.000000
    21  H    0.000000   0.000000   0.000000   0.000000   0.000000   0.000000
    22  N    0.000000   0.000000   0.000000   0.000000   0.000000   0.000000
    23  H    0.000000   0.000000   0.000000   0.000000   0.000002   0.000000
    24  H    0.000000   0.000000   0.000000   0.000000   0.000000   0.000000
    25  H    0.000000   0.000000   0.000000   0.000000   0.000000   0.000000
    26  O    0.000000   0.000000   0.000000   0.000000   0.000000   0.000000
    27  C    0.000000   0.000000   0.000000   0.000000   0.000000   0.000000
    28  H    0.000000   0.000000   0.000000   0.000000   0.000000   0.000000
    29  H    0.000000   0.000000   0.000000   0.000000   0.000000   0.000000
    30  H    0.000000   0.000000   0.000000   0.000000   0.000000   0.000000
    31  C   -0.000008   0.000002  -0.000034   0.000000   0.003175   0.000387
    32  O    0.000000   0.000000   0.000000   0.000000  -0.000086   0.000000
    33  O   -0.000024   0.000000  -0.000016   0.000000   0.000110  -0.000003
               7          8          9         10         11         12
     1  C   -0.111360  -0.000790   0.004991   0.000122  -0.000294   0.000094
     2  H    0.000708   0.000036  -0.000132   0.000013  -0.000005   0.000000
     3  H    0.006909   0.001171   0.000130  -0.000005  -0.000011  -0.000007
     4  H    0.002501   0.000007  -0.000092  -0.000009   0.000024  -0.000004
     5  C    0.276944  -0.013624  -0.027862  -0.000251  -0.003287   0.001329
     6  O   -0.104308   0.002088   0.009030   0.003888  -0.001813   0.003974
     7  N    7.427028   0.310921   0.159290  -0.040555  -0.065867  -0.001712
     8  H    0.310921   0.301630  -0.028694   0.002647   0.002714  -0.000202
     9  C    0.159290  -0.028694   5.084134   0.402966   0.339346  -0.032498
    10  H   -0.040555   0.002647   0.402966   0.469014  -0.035269  -0.004504
    11  C   -0.065867   0.002714   0.339346  -0.035269   5.158780   0.400785
    12  H   -0.001712  -0.000202  -0.032498  -0.004504   0.400785   0.483048
    13  H    0.000500   0.000759  -0.042219   0.003707   0.396443  -0.025730
    14  C    0.003921  -0.000048  -0.037505   0.000135   0.291774  -0.033958
    15  H    0.000126  -0.000002  -0.004626   0.001533  -0.033683   0.000065
    16  H   -0.000051   0.000002   0.002812  -0.000159  -0.033983  -0.005464
    17  C   -0.000069  -0.000012  -0.001141   0.000058  -0.037201   0.003181
    18  H   -0.000053   0.000043  -0.000740   0.000012  -0.000315   0.000170
    19  C    0.000003   0.000001   0.000203   0.000000   0.002683  -0.000087
    20  H    0.000000   0.000000  -0.000019   0.000000   0.000124   0.000000
    21  H    0.000000   0.000000  -0.000004   0.000000  -0.000121   0.000001
    22  N    0.000010   0.000006  -0.001756   0.000026   0.000292  -0.000002
    23  H   -0.000097  -0.000012   0.004993  -0.000071  -0.001041   0.000019
    24  H    0.000000   0.000000   0.000007   0.000000   0.000003   0.000000
    25  H   -0.000005  -0.000019   0.000779  -0.000013  -0.000096   0.000002
    26  O    0.000000   0.000000  -0.000010   0.000001   0.002054  -0.000076
    27  C    0.000000   0.000000   0.000011   0.000000  -0.000327   0.000003
    28  H    0.000000   0.000000  -0.000013   0.000000   0.000126  -0.000011
    29  H    0.000000   0.000000   0.000000   0.000000   0.000033  -0.000003
    30  H   -0.000001   0.000000   0.000025  -0.000001  -0.001300   0.000349
    31  C   -0.035810  -0.006521   0.370936  -0.035489  -0.041827   0.003237
    32  O    0.002480   0.000494  -0.097329   0.005708  -0.003549  -0.000185
    33  O   -0.002574   0.020869  -0.120355   0.003176   0.006398  -0.000013
              13         14         15         16         17         18
     1  C   -0.000065   0.000003   0.000000   0.000000   0.000000   0.000000
     2  H    0.000001   0.000000   0.000000   0.000000   0.000000   0.000000
     3  H    0.000009   0.000000   0.000000   0.000000   0.000000   0.000000
     4  H   -0.000003   0.000000   0.000000   0.000000   0.000000   0.000000
     5  C    0.000612   0.000119   0.000001  -0.000004  -0.000005   0.000001
     6  O   -0.000231   0.000046   0.000000   0.000000  -0.000001   0.000000
     7  N    0.000500   0.003921   0.000126  -0.000051  -0.000069  -0.000053
     8  H    0.000759  -0.000048  -0.000002   0.000002  -0.000012   0.000043
     9  C   -0.042219  -0.037505  -0.004626   0.002812  -0.001141  -0.000740
    10  H    0.003707   0.000135   0.001533  -0.000159   0.000058   0.000012
    11  C    0.396443   0.291774  -0.033683  -0.033983  -0.037201  -0.000315
    12  H   -0.025730  -0.033958   0.000065  -0.005464   0.003181   0.000170
    13  H    0.547836  -0.046727   0.003614   0.000228  -0.005135   0.002022
    14  C   -0.046727   5.297730   0.387925   0.396214   0.314721  -0.055689
    15  H    0.003614   0.387925   0.480711  -0.020384  -0.038766   0.002665
    16  H    0.000228   0.396214  -0.020384   0.509250  -0.043761   0.003161
    17  C   -0.005135   0.314721  -0.038766  -0.043761   4.840592   0.408326
    18  H    0.002022  -0.055689   0.002665   0.003161   0.408326   0.520035
    19  C    0.000330  -0.045130  -0.003505   0.001085   0.347911  -0.050515
    20  H    0.000004  -0.004009   0.001228   0.000686  -0.030933   0.003490
    21  H   -0.000004   0.004137   0.000140  -0.000153  -0.040059  -0.001418
    22  N   -0.000027   0.001271   0.000199   0.000045  -0.043754   0.000669
    23  H    0.000023   0.002466   0.000316  -0.000022  -0.002836  -0.000409
    24  H    0.000001  -0.000213  -0.000003   0.000002   0.003551  -0.000052
    25  H   -0.000012  -0.000075   0.000021   0.000001  -0.000555   0.003252
    26  O    0.000286  -0.050340   0.002412  -0.001603   0.199215  -0.036146
    27  C   -0.000289  -0.003603   0.000096  -0.001375  -0.048136  -0.004971
    28  H    0.000456  -0.001170   0.000005   0.000429  -0.005814   0.006978
    29  H    0.000034  -0.000212   0.000005  -0.000098   0.004799  -0.000065
    30  H   -0.000526   0.004531  -0.000058  -0.001042  -0.004021  -0.000929
    31  C   -0.002390  -0.009606  -0.002594   0.000382   0.000238  -0.000334
    32  O    0.000118   0.000136   0.008535   0.000313  -0.002329  -0.000665
    33  O    0.001488  -0.003717   0.000296  -0.000040   0.001256   0.008646
              19         20         21         22         23         24
     1  C    0.000000   0.000000   0.000000   0.000000   0.000000   0.000000
     2  H    0.000000   0.000000   0.000000   0.000000   0.000000   0.000000
     3  H    0.000000   0.000000   0.000000   0.000000   0.000000   0.000000
     4  H    0.000000   0.000000   0.000000   0.000000   0.000000   0.000000
     5  C    0.000000   0.000000   0.000000   0.000000   0.000002   0.000000
     6  O    0.000000   0.000000   0.000000   0.000000   0.000000   0.000000
     7  N    0.000003   0.000000   0.000000   0.000010  -0.000097   0.000000
     8  H    0.000001   0.000000   0.000000   0.000006  -0.000012   0.000000
     9  C    0.000203  -0.000019  -0.000004  -0.001756   0.004993   0.000007
    10  H    0.000000   0.000000   0.000000   0.000026  -0.000071   0.000000
    11  C    0.002683   0.000124  -0.000121   0.000292  -0.001041   0.000003
    12  H   -0.000087   0.000000   0.000001  -0.000002   0.000019   0.000000
    13  H    0.000330   0.000004  -0.000004  -0.000027   0.000023   0.000001
    14  C   -0.045130  -0.004009   0.004137   0.001271   0.002466  -0.000213
    15  H   -0.003505   0.001228   0.000140   0.000199   0.000316  -0.000003
    16  H    0.001085   0.000686  -0.000153   0.000045  -0.000022   0.000002
    17  C    0.347911  -0.030933  -0.040059  -0.043754  -0.002836   0.003551
    18  H   -0.050515   0.003490  -0.001418   0.000669  -0.000409  -0.000052
    19  C    5.087597   0.396383   0.402166   0.147280  -0.004914  -0.022131
    20  H    0.396383   0.472176  -0.023525  -0.035919  -0.002102  -0.001743
    21  H    0.402166  -0.023525   0.473403  -0.037202   0.001526  -0.003030
    22  N    0.147280  -0.035919  -0.037202   7.230273   0.151556   0.316356
    23  H   -0.004914  -0.002102   0.001526   0.151556   0.227226  -0.005798
    24  H   -0.022131  -0.001743  -0.003030   0.316356  -0.005798   0.302890
    25  H   -0.019033   0.002674  -0.001973   0.286218  -0.002808  -0.010017
    26  O   -0.059395   0.002159   0.005190   0.001958  -0.000018  -0.000055
    27  C    0.005688  -0.000204  -0.000087  -0.000112  -0.000002   0.000003
    28  H   -0.000020   0.000006  -0.000048   0.000009   0.000000   0.000000
    29  H   -0.000097   0.000006  -0.000055   0.000000   0.000000   0.000000
    30  H   -0.000319   0.000002   0.000051   0.000003   0.000000   0.000000
    31  C   -0.001820  -0.000014  -0.000009   0.002557  -0.016132   0.000565
    32  O    0.004277   0.000112  -0.000017  -0.094620   0.123047   0.001340
    33  O   -0.001430  -0.000030  -0.000038  -0.008875  -0.005819   0.000349
              25         26         27         28         29         30
     1  C    0.000000   0.000000   0.000000   0.000000   0.000000   0.000000
     2  H    0.000000   0.000000   0.000000   0.000000   0.000000   0.000000
     3  H    0.000000   0.000000   0.000000   0.000000   0.000000   0.000000
     4  H    0.000000   0.000000   0.000000   0.000000   0.000000   0.000000
     5  C    0.000000   0.000000   0.000000   0.000000   0.000000   0.000000
     6  O    0.000000   0.000000   0.000000   0.000000   0.000000   0.000000
     7  N   -0.000005   0.000000   0.000000   0.000000   0.000000  -0.000001
     8  H   -0.000019   0.000000   0.000000   0.000000   0.000000   0.000000
     9  C    0.000779  -0.000010   0.000011  -0.000013   0.000000   0.000025
    10  H   -0.000013   0.000001   0.000000   0.000000   0.000000  -0.000001
    11  C   -0.000096   0.002054  -0.000327   0.000126   0.000033  -0.001300
    12  H    0.000002  -0.000076   0.000003  -0.000011  -0.000003   0.000349
    13  H   -0.000012   0.000286  -0.000289   0.000456   0.000034  -0.000526
    14  C   -0.000075  -0.050340  -0.003603  -0.001170  -0.000212   0.004531
    15  H    0.000021   0.002412   0.000096   0.000005   0.000005  -0.000058
    16  H    0.000001  -0.001603  -0.001375   0.000429  -0.000098  -0.001042
    17  C   -0.000555   0.199215  -0.048136  -0.005814   0.004799  -0.004021
    18  H    0.003252  -0.036146  -0.004971   0.006978  -0.000065  -0.000929
    19  C   -0.019033  -0.059395   0.005688  -0.000020  -0.000097  -0.000319
    20  H    0.002674   0.002159  -0.000204   0.000006   0.000006   0.000002
    21  H   -0.001973   0.005190  -0.000087  -0.000048  -0.000055   0.000051
    22  N    0.286218   0.001958  -0.000112   0.000009   0.000000   0.000003
    23  H   -0.002808  -0.000018  -0.000002   0.000000   0.000000   0.000000
    24  H   -0.010017  -0.000055   0.000003   0.000000   0.000000   0.000000
    25  H    0.265695   0.000015  -0.000013   0.000000   0.000000   0.000000
    26  O    0.000015   8.483787   0.209198  -0.039943  -0.034590  -0.039536
    27  C   -0.000013   0.209198   4.827112   0.392892   0.403846   0.393020
    28  H    0.000000  -0.039943   0.392892   0.569114  -0.029258  -0.043796
    29  H    0.000000  -0.034590   0.403846  -0.029258   0.504149  -0.031003
    30  H    0.000000  -0.039536   0.393020  -0.043796  -0.031003   0.564760
    31  C   -0.000899   0.000028   0.000005  -0.000002   0.000000   0.000003
    32  O   -0.001180  -0.000003   0.000000   0.000000   0.000000   0.000000
    33  O    0.022950   0.000032   0.000005  -0.000009   0.000000   0.000000
              31         32         33
     1  C   -0.000008   0.000000  -0.000024
     2  H    0.000002   0.000000   0.000000
     3  H   -0.000034   0.000000  -0.000016
     4  H    0.000000   0.000000   0.000000
     5  C    0.003175  -0.000086   0.000110
     6  O    0.000387   0.000000  -0.000003
     7  N   -0.035810   0.002480  -0.002574
     8  H   -0.006521   0.000494   0.020869
     9  C    0.370936  -0.097329  -0.120355
    10  H   -0.035489   0.005708   0.003176
    11  C   -0.041827  -0.003549   0.006398
    12  H    0.003237  -0.000185  -0.000013
    13  H   -0.002390   0.000118   0.001488
    14  C   -0.009606   0.000136  -0.003717
    15  H   -0.002594   0.008535   0.000296
    16  H    0.000382   0.000313  -0.000040
    17  C    0.000238  -0.002329   0.001256
    18  H   -0.000334  -0.000665   0.008646
    19  C   -0.001820   0.004277  -0.001430
    20  H   -0.000014   0.000112  -0.000030
    21  H   -0.000009  -0.000017  -0.000038
    22  N    0.002557  -0.094620  -0.008875
    23  H   -0.016132   0.123047  -0.005819
    24  H    0.000565   0.001340   0.000349
    25  H   -0.000899  -0.001180   0.022950
    26  O    0.000028  -0.000003   0.000032
    27  C    0.000005   0.000000   0.000005
    28  H   -0.000002   0.000000  -0.000009
    29  H    0.000000   0.000000   0.000000
    30  H    0.000003   0.000000   0.000000
    31  C    4.122692   0.403094   0.483041
    32  O    0.403094   8.526388  -0.091781
    33  O    0.483041  -0.091781   8.417792
 Mulliken charges:
               1
     1  C   -0.573285
     2  H    0.201252
     3  H    0.165915
     4  H    0.199583
     5  C    0.756475
     6  O   -0.628424
     7  N   -0.828878
     8  H    0.406537
     9  C    0.015341
    10  H    0.223322
    11  C   -0.341589
    12  H    0.208200
    13  H    0.164887
    14  C   -0.413129
    15  H    0.213728
    16  H    0.193527
    17  C    0.180679
    18  H    0.192830
    19  C   -0.187213
    20  H    0.219448
    21  H    0.221130
    22  N   -0.916461
    23  H    0.530905
    24  H    0.417975
    25  H    0.455091
    26  O   -0.644621
    27  C   -0.172757
    28  H    0.150067
    29  H    0.182508
    30  H    0.159789
    31  C    0.763148
    32  O   -0.784298
    33  O   -0.731681
 Sum of Mulliken charges =   0.00000
 Mulliken charges with hydrogens summed into heavy atoms:
               1
     1  C   -0.006536
     5  C    0.756475
     6  O   -0.628424
     7  N   -0.422341
     9  C    0.238663
    11  C    0.031499
    14  C   -0.005874
    17  C    0.373509
    19  C    0.253365
    22  N    0.487510
    26  O   -0.644621
    27  C    0.319607
    31  C    0.763148
    32  O   -0.784298
    33  O   -0.731681
 Electronic spatial extent (au):  <R**2>=           3989.8066
 Charge=              0.0000 electrons
 Dipole moment (field-independent basis, Debye):
    X=             -7.3560    Y=              0.2810    Z=              3.4702  Tot=              8.1383
 Quadrupole moment (field-independent basis, Debye-Ang):
   XX=            -79.6062   YY=            -88.3730   ZZ=            -95.1427
   XY=             -9.1256   XZ=              7.9941   YZ=             -1.2941
 Traceless Quadrupole moment (field-independent basis, Debye-Ang):
   XX=              8.1011   YY=             -0.6657   ZZ=             -7.4354
   XY=             -9.1256   XZ=              7.9941   YZ=             -1.2941
 Octapole moment (field-independent basis, Debye-Ang**2):
  XXX=            -62.6204  YYY=             -6.8235  ZZZ=              5.3111  XYY=            -47.5071
  XXY=             76.6299  XXZ=             54.7554  XZZ=            -17.4987  YZZ=             -2.4185
  YYZ=             16.0001  XYZ=            -13.4746
 Hexadecapole moment (field-independent basis, Debye-Ang**3):
 XXXX=          -3383.8330 YYYY=          -1095.5915 ZZZZ=           -422.0434 XXXY=           -120.2546
 XXXZ=            132.0654 YYYX=            -54.1297 YYYZ=             15.6112 ZZZX=             -0.1032
 ZZZY=              2.6024 XXYY=           -658.9849 XXZZ=           -672.6604 YYZZ=           -279.4817
 XXYZ=            -32.3675 YYXZ=            -25.7209 ZZXY=              3.4805
 N-N= 1.115419546528D+03 E-N=-4.014668358441D+03  KE= 7.585514459149D+02
 1\1\GINC-E09\FOpt\RHF\6-31G(d)\C9H18N2O4\WISE\19-May-2016\1\\# opt=z-m
 atrix HF/6-31G* scf=tight\\Title Card Required\\0,1\C\H,1,B1\H,1,B2,2,
 A1\H,1,B3,2,A2,3,D1,0\C,1,B4,4,A3,3,D2,0\O,5,B5,1,A4,4,D3,0\N,5,B6,1,A
 5,6,D4,0\H,7,B7,5,A6,1,D5,0\C,7,B8,5,A7,1,D6,0\H,9,B9,7,A8,5,D7,0\C,9,
 B10,7,A9,5,D8,0\H,11,B11,9,A10,7,D9,0\H,11,B12,9,A11,7,D10,0\C,11,B13,
 9,A12,7,D11,0\H,14,B14,11,A13,9,D12,0\H,14,B15,11,A14,9,D13,0\C,14,B16
 ,11,A15,9,D14,0\H,17,B17,14,A16,11,D15,0\C,17,B18,14,A17,11,D16,0\H,19
 ,B19,17,A18,14,D17,0\H,19,B20,17,A19,14,D18,0\N,19,B21,17,A20,14,D19,0
 \H,22,B22,19,A21,17,D20,0\H,22,B23,19,A22,17,D21,0\H,22,B24,19,A23,17,
 D22,0\O,17,B25,14,A24,11,D23,0\C,26,B26,17,A25,14,D24,0\H,27,B27,26,A2
 6,17,D25,0\H,27,B28,26,A27,17,D26,0\H,27,B29,26,A28,17,D27,0\C,9,B30,7
 ,A29,5,D28,0\O,31,B31,9,A30,7,D29,0\O,31,B32,9,A31,7,D30,0\\B1=1.08437
 824\B2=1.08347061\B3=1.08240958\B4=1.51514541\B5=1.20472903\B6=1.34490
 063\B7=0.99503456\B8=1.44610399\B9=1.07870188\B10=1.5534784\B11=1.0829
 2134\B12=1.08536232\B13=1.54483047\B14=1.08235347\B15=1.08413068\B16=1
 .55309836\B17=1.08658182\B18=1.5365653\B19=1.08096353\B20=1.07967033\B
 21=1.48902926\B22=1.07567776\B23=1.00551812\B24=1.01102065\B25=1.40465
 188\B26=1.39784258\B27=1.08745182\B28=1.08079527\B29=1.08507343\B30=1.
 52173356\B31=1.25451604\B32=1.2314728\A1=108.79369362\A2=107.72454593\
 A3=108.72805096\A4=121.13259533\A5=115.82590892\A6=120.9912768\A7=123.
 21174745\A8=109.14420151\A9=111.28246479\A10=107.23250193\A11=107.4361
 878\A12=115.97083237\A13=109.50163659\A14=109.40675031\A15=114.7459106
 6\A16=109.77275735\A17=115.41867107\A18=111.42628143\A19=108.0645427\A
 20=112.89230996\A21=112.71150054\A22=111.44351973\A23=111.98898652\A24
 =111.67292684\A25=115.84127395\A26=111.07965822\A27=107.01843196\A28=1
 12.08773444\A29=109.47189643\A30=115.652013\A31=118.10444403\D1=-118.6
 2177255\D2=-124.47118504\D3=-47.62371103\D4=-179.02665143\D5=-3.796746
 42\D6=-182.31568375\D7=-40.71943833\D8=80.09060718\D9=-79.31594461\D10
 =34.95143306\D11=-202.32501379\D12=33.32068247\D13=149.26183615\D14=26
 8.34767087\D15=9.77239976\D16=132.0242415\D17=39.89307886\D18=159.4373
 7262\D19=278.6827115\D20=61.95633907\D21=-173.69712392\D22=-51.2855682
 3\D23=-111.19874868\D24=72.32081975\D25=57.01866563\D26=175.97603426\D
 27=-64.84475367\D28=-159.90418013\D29=-212.41486328\D30=-40.57068136\\
 Version=AM64L-G09RevD.01\State=1-A\HF=-759.6351332\RMSD=7.913e-09\RMSF
 =2.145e-05\Dipole=1.4618701,-1.4589313,-2.4466857\Quadrupole=-5.402992
 8,10.9666479,-5.5636552,-0.9348645,2.3268007,4.3961761\PG=C01 [X(C9H18
 N2O4)]\\@


 The impersonal hand of government can
 never replace the helping hand of a neighbor.
                        -- Hubert H. Humphrey
 Job cpu time:       0 days  6 hours 22 minutes  0.6 seconds.
 File lengths (MBytes):  RWF=     32 Int=      0 D2E=      0 Chk=      6 Scr=      1
 Normal termination of Gaussian 09 at Thu May 19 00:10:24 2016.
