 Entering Gaussian System, Link 0=/programs/g09/g09
 Input=/scratch2/Wise/temp/temp_05192016/temp/CLYS_q.com
 Output=/scratch2/Wise/temp/temp_05192016/temp/CLYS_q.log
 Initial command:
 /programs/g09/l1.exe "/tmp/Wise/CLYS_q/Gau-12242.inp" -scrdir="/tmp/Wise/CLYS_q/"
 Entering Link 1 = /programs/g09/l1.exe PID=     12243.
  
 Copyright (c) 1988,1990,1992,1993,1995,1998,2003,2009,2013,
            Gaussian, Inc.  All Rights Reserved.
  
 This is part of the Gaussian(R) 09 program.  It is based on
 the Gaussian(R) 03 system (copyright 2003, Gaussian, Inc.),
 the Gaussian(R) 98 system (copyright 1998, Gaussian, Inc.),
 the Gaussian(R) 94 system (copyright 1995, Gaussian, Inc.),
 the Gaussian 92(TM) system (copyright 1992, Gaussian, Inc.),
 the Gaussian 90(TM) system (copyright 1990, Gaussian, Inc.),
 the Gaussian 88(TM) system (copyright 1988, Gaussian, Inc.),
 the Gaussian 86(TM) system (copyright 1986, Carnegie Mellon
 University), and the Gaussian 82(TM) system (copyright 1983,
 Carnegie Mellon University). Gaussian is a federally registered
 trademark of Gaussian, Inc.
  
 This software contains proprietary and confidential information,
 including trade secrets, belonging to Gaussian, Inc.
  
 This software is provided under written license and may be
 used, copied, transmitted, or stored only in accord with that
 written license.
  
 The following legend is applicable only to US Government
 contracts under FAR:
  
                    RESTRICTED RIGHTS LEGEND
  
 Use, reproduction and disclosure by the US Government is
 subject to restrictions as set forth in subparagraphs (a)
 and (c) of the Commercial Computer Software - Restricted
 Rights clause in FAR 52.227-19.
  
 Gaussian, Inc.
 340 Quinnipiac St., Bldg. 40, Wallingford CT 06492
  
  
 ---------------------------------------------------------------
 Warning -- This program may not be used in any manner that
 competes with the business of Gaussian, Inc. or will provide
 assistance to any competitor of Gaussian, Inc.  The licensee
 of this program is prohibited from giving any competitor of
 Gaussian, Inc. access to this program.  By using this program,
 the user acknowledges that Gaussian, Inc. is engaged in the
 business of creating and licensing software in the field of
 computational chemistry and represents and warrants to the
 licensee that it is not a competitor of Gaussian, Inc. and that
 it will not use this program in any manner prohibited above.
 ---------------------------------------------------------------
  

 Cite this work as:
 Gaussian 09, Revision D.01,
 M. J. Frisch, G. W. Trucks, H. B. Schlegel, G. E. Scuseria, 
 M. A. Robb, J. R. Cheeseman, G. Scalmani, V. Barone, B. Mennucci, 
 G. A. Petersson, H. Nakatsuji, M. Caricato, X. Li, H. P. Hratchian, 
 A. F. Izmaylov, J. Bloino, G. Zheng, J. L. Sonnenberg, M. Hada, 
 M. Ehara, K. Toyota, R. Fukuda, J. Hasegawa, M. Ishida, T. Nakajima, 
 Y. Honda, O. Kitao, H. Nakai, T. Vreven, J. A. Montgomery, Jr., 
 J. E. Peralta, F. Ogliaro, M. Bearpark, J. J. Heyd, E. Brothers, 
 K. N. Kudin, V. N. Staroverov, T. Keith, R. Kobayashi, J. Normand, 
 K. Raghavachari, A. Rendell, J. C. Burant, S. S. Iyengar, J. Tomasi, 
 M. Cossi, N. Rega, J. M. Millam, M. Klene, J. E. Knox, J. B. Cross, 
 V. Bakken, C. Adamo, J. Jaramillo, R. Gomperts, R. E. Stratmann, 
 O. Yazyev, A. J. Austin, R. Cammi, C. Pomelli, J. W. Ochterski, 
 R. L. Martin, K. Morokuma, V. G. Zakrzewski, G. A. Voth, 
 P. Salvador, J. J. Dannenberg, S. Dapprich, A. D. Daniels, 
 O. Farkas, J. B. Foresman, J. V. Ortiz, J. Cioslowski, 
 and D. J. Fox, Gaussian, Inc., Wallingford CT, 2013.
 
 ******************************************
 Gaussian 09:  AM64L-G09RevD.01 24-Apr-2013
                19-May-2016 
 ******************************************
 %mem=8GB
 %nproc=8
 Will use up to    8 processors via shared memory.
 --------------------------------------------
 # HF/6-31G* scf=tight iop(6/33=2) pop=chelpg
 --------------------------------------------
 1/38=1/1;
 2/12=2,17=6,18=5,40=1/2;
 3/5=1,6=6,7=1,11=9,16=1,25=1,30=1/1,2,3;
 4//1;
 5/5=2,32=2,38=5/2;
 6/7=2,8=2,9=2,10=2,15=8,20=3,28=1,33=2/1,2;
 99/5=1,9=1/99;
 -------------------
 Title Card Required
 -------------------
 Symbolic Z-matrix:
 Charge =  0 Multiplicity = 1
 C
 H                    1    B1
 H                    1    B2       2    A1
 H                    1    B3       3    A2       2    D1       0
 C                    1    B4       4    A3       2    D2       0
 O                    5    B5       1    A4       4    D3       0
 N                    5    B6       1    A5       6    D4       0
 H                    7    B7       5    A6       1    D5       0
 C                    7    B8       5    A7       1    D6       0
 H                    9    B9       7    A8       5    D7       0
 C                    9    B10      7    A9       5    D8       0
 H                    11   B11      9    A10      7    D9       0
 H                    11   B12      9    A11      7    D10      0
 C                    11   B13      9    A12      7    D11      0
 H                    14   B14      11   A13      9    D12      0
 H                    14   B15      11   A14      9    D13      0
 C                    14   B16      11   A15      9    D14      0
 H                    17   B17      14   A16      11   D15      0
 C                    17   B18      14   A17      11   D16      0
 H                    19   B19      17   A18      14   D17      0
 H                    19   B20      17   A19      14   D18      0
 N                    19   B21      17   A20      14   D19      0
 H                    22   B22      19   A21      17   D20      0
 H                    22   B23      19   A22      17   D21      0
 H                    22   B24      19   A23      17   D22      0
 O                    17   B25      14   A24      11   D23      0
 C                    26   B26      17   A25      14   D24      0
 H                    27   B27      26   A26      17   D25      0
 H                    27   B28      26   A27      17   D26      0
 H                    27   B29      26   A28      17   D27      0
 C                    9    B30      7    A29      5    D28      0
 O                    31   B31      9    A30      7    D29      0
 O                    31   B32      9    A31      7    D30      0
       Variables:
  B1                    1.08438                  
  B2                    1.08347                  
  B3                    1.08241                  
  B4                    1.51515                  
  B5                    1.20473                  
  B6                    1.3449                   
  B7                    0.99503                  
  B8                    1.4461                   
  B9                    1.0787                   
  B10                   1.55348                  
  B11                   1.08292                  
  B12                   1.08536                  
  B13                   1.54483                  
  B14                   1.08235                  
  B15                   1.08413                  
  B16                   1.5531                   
  B17                   1.08658                  
  B18                   1.53657                  
  B19                   1.08096                  
  B20                   1.07967                  
  B21                   1.48903                  
  B22                   1.07568                  
  B23                   1.00552                  
  B24                   1.01102                  
  B25                   1.40465                  
  B26                   1.39784                  
  B27                   1.08745                  
  B28                   1.0808                   
  B29                   1.08507                  
  B30                   1.52173                  
  B31                   1.25452                  
  B32                   1.23147                  
  A1                  108.79364                  
  A2                  109.50444                  
  A3                  108.72809                  
  A4                  121.13255                  
  A5                  115.82596                  
  A6                  120.99127                  
  A7                  123.21179                  
  A8                  109.14422                  
  A9                  111.28248                  
  A10                 107.23253                  
  A11                 107.43618                  
  A12                 115.97087                  
  A13                 109.50167                  
  A14                 109.4068                   
  A15                 114.74589                  
  A16                 109.77274                  
  A17                 115.41866                  
  A18                 111.42629                  
  A19                 108.06451                  
  A20                 112.89232                  
  A21                 112.7115                   
  A22                 111.44353                  
  A23                 111.98899                  
  A24                 111.67294                  
  A25                 115.84126                  
  A26                 111.07958                  
  A27                 107.01843                  
  A28                 112.08775                  
  A29                 109.47195                  
  A30                 115.65204                  
  A31                 118.10442                  
  D1                  117.49703                  
  D2                  117.36372                  
  D3                  -47.62379                  
  D4                 -179.02659                  
  D5                   -3.79682                  
  D6                  177.68431                  
  D7                  -40.71944                  
  D8                   80.09058                  
  D9                  -79.31591                  
  D10                  34.95144                  
  D11                 157.67503                  
  D12                  33.3206                   
  D13                 149.26184                  
  D14                 -91.65232                  
  D15                   9.77239                  
  D16                 132.02421                  
  D17                  39.89314                  
  D18                 159.43737                  
  D19                 -81.31731                  
  D20                  61.95636                  
  D21                -173.69711                  
  D22                 -51.28553                  
  D23                -111.19878                  
  D24                  72.32077                  
  D25                  57.01873                  
  D26                 175.97604                  
  D27                 -64.84473                  
  D28                -159.9042                   
  D29                 147.58514                  
  D30                 -40.57068                  
 
     1 tetrahedral angles replaced.
    1 tetrahedral angles replaced.
                          Input orientation:                          
 ---------------------------------------------------------------------
 Center     Atomic      Atomic             Coordinates (Angstroms)
 Number     Number       Type             X           Y           Z
 ---------------------------------------------------------------------
      1          6           0        0.000000    0.000000    0.000000
      2          1           0        0.000000    0.000000    1.084378
      3          1           0        1.025706    0.000000   -0.349052
      4          1           0       -0.493888    0.905038   -0.329531
      5          6           0       -0.800480   -1.193470   -0.480132
      6          8           0       -1.994939   -1.243004   -0.331169
      7          7           0       -0.091613   -2.181829   -1.054074
      8          1           0        0.888627   -2.091633   -1.199291
      9          6           0       -0.686450   -3.413171   -1.524371
     10          1           0       -1.427693   -3.742206   -0.813109
     11          6           0       -1.354385   -3.222018   -2.913838
     12          1           0       -2.314160   -2.749342   -2.746119
     13          1           0       -0.751371   -2.510946   -3.469501
     14          6           0       -1.543371   -4.503483   -3.755641
     15          1           0       -1.734974   -5.342222   -3.098912
     16          1           0       -2.425695   -4.399478   -4.376951
     17          6           0       -0.371218   -4.824932   -4.722515
     18          1           0        0.469613   -4.169882   -4.511392
     19          6           0        0.136409   -6.274727   -4.684533
     20          1           0       -0.680421   -6.976859   -4.593525
     21          1           0        0.662687   -6.469452   -5.606923
     22          7           0        1.076807   -6.529862   -3.558582
     23          1           0        0.621987   -6.379615   -2.595438
     24          1           0        1.473589   -7.452189   -3.612831
     25          1           0        1.825126   -5.850664   -3.529054
     26          8           0       -0.748385   -4.665233   -6.066125
     27          6           0       -0.916386   -3.346842   -6.499235
     28          1           0       -0.010849   -2.765383   -6.342835
     29          1           0       -1.132109   -3.386609   -7.557536
     30          1           0       -1.739446   -2.852908   -5.993287
     31          6           0        0.389834   -4.481911   -1.647180
     32          8           0        0.016035   -5.657718   -1.420109
     33          8           0        1.486132   -4.151774   -2.100682
 ---------------------------------------------------------------------
                    Distance matrix (angstroms):
                    1          2          3          4          5
     1  C    0.000000
     2  H    1.084378   0.000000
     3  H    1.083471   1.762610   0.000000
     4  H    1.082409   1.749903   1.768796   0.000000
     5  C    1.515145   2.124342   2.185522   2.126126   0.000000
     6  O    2.373713   2.743832   3.266446   2.620542   1.204730
     7  N    2.424838   3.056427   2.550654   3.196175   1.344900
     8  H    2.569608   3.221759   2.261996   3.412897   2.043764
     9  C    3.800613   4.350463   3.995321   4.484602   2.455710
    10  H    4.086999   4.432028   4.498736   4.764737   2.645814
    11  C    4.550408   5.310508   4.756507   4.944865   3.216325
    12  H    4.522763   5.252326   4.945656   4.744237   3.137939
    13  H    4.348201   5.254258   4.381787   4.647005   3.267183
    14  C    6.063678   6.788898   6.203738   6.487815   4.715616
    15  H    6.415039   7.003527   6.612293   6.945360   4.994341
    16  H    6.663115   7.420615   6.891411   6.946321   5.301416
    17  C    6.761651   7.558954   6.660221   7.221213   5.600857
    18  H    6.161259   6.994362   5.917959   6.646135   5.169452
    19  C    7.831709   8.524738   7.678506   8.420947   6.661376
    20  H    8.380931   9.020982   8.342840   8.963300   7.098029
    21  H    8.586649   9.330942   8.344507   9.141752   7.500723
    22  N    7.514128   8.084287   7.276180   8.256609   6.440353
    23  H    6.915393   7.391036   6.775598   7.710103   5.778758
    24  H    8.411844   8.931425   8.147881   9.192076   7.359128
    25  H    7.072169   7.671057   6.706844   7.826512   6.154608
    26  O    7.689106   8.570541   7.589251   8.000075   6.577171
    27  C    7.367576   8.339803   7.266212   7.504814   6.393751
    28  H    6.919466   7.925336   6.681858   7.061525   6.120925
    29  H    8.358657   9.350587   8.251517   8.430280   7.416838
    30  H    6.861796   7.826756   6.902358   6.910261   5.833547
    31  C    4.790898   5.263165   4.709246   5.615726   3.686828
    32  O    5.833244   6.187284   5.846056   6.672267   4.634627
    33  O    4.884535   5.439708   4.529617   5.712163   4.075088
                    6          7          8          9         10
     6  O    0.000000
     7  N    2.242015   0.000000
     8  H    3.128699   0.995034   0.000000
     9  C    2.800981   1.446103   2.081588   0.000000
    10  H    2.607690   2.068321   2.870343   1.078703   0.000000
    11  C    3.316170   2.476956   3.041142   1.553478   2.165417
    12  H    2.864077   2.850404   3.617057   2.140742   2.346940
    13  H    3.606004   2.525448   2.831831   2.145170   3.004968
    14  C    4.749910   3.846576   4.273940   2.627101   3.041615
    15  H    4.952936   4.107321   4.588918   2.701818   2.807021
    16  H    5.149488   4.626816   5.138911   3.483531   3.758854
    17  C    5.894963   4.530081   4.633707   3.510066   4.191884
    18  H    5.667000   4.027454   3.932519   3.291108   4.178514
    19  C    6.986605   5.475769   5.496455   4.341915   4.883442
    20  H    7.264484   5.988884   6.152087   4.703150   5.031197
    21  H    7.887478   6.299295   6.216395   5.275249   5.898153
    22  N    6.913948   5.152005   5.029865   4.118356   4.645554
    23  H    6.193544   4.528404   4.517424   3.414526   3.786002
    24  H    7.832877   6.064139   5.907869   5.033994   5.479037
    25  H    6.786007   4.822838   4.520525   4.033379   4.733158
    26  O    6.793767   5.631989   5.743631   4.711584   5.376580
    27  C    6.605638   5.629147   5.737859   4.980617   5.722743
    28  H    6.511096   5.321471   5.264887   4.908530   5.791330
    29  H    7.586824   6.695458   6.796147   6.049661   6.760260
    30  H    5.892083   5.249908   5.519846   4.625355   5.265196
    31  C    4.231967   2.423622   2.482505   1.521734   2.132192
    32  O    4.971871   3.496767   3.677926   2.354219   2.474264
    33  O    4.869288   2.732280   2.326736   2.365963   3.211848
                   11         12         13         14         15
    11  C    0.000000
    12  H    1.082922   0.000000
    13  H    1.085362   1.738512   0.000000
    14  C    1.544830   2.165701   2.163179   0.000000
    15  H    2.162028   2.680102   3.020089   1.082353   0.000000
    16  H    2.162133   2.322715   2.682048   1.084130   1.731833
    17  C    2.609073   3.462548   2.658776   1.553099   2.182545
    18  H    2.603381   3.589361   2.308334   2.175903   2.868743
    19  C    3.831039   4.710740   4.053456   2.611859   2.624087
    20  H    4.168262   4.894273   4.605740   2.750332   2.453159
    21  H    4.676229   5.557431   4.715708   3.486972   3.648224
    22  N    4.155505   5.143062   4.416090   3.318189   3.086729
    23  H    3.738696   4.671461   4.197225   3.091072   2.623916
    24  H    5.136182   6.100409   5.420965   4.221055   3.874396
    25  H    4.171039   5.231145   4.218483   3.634971   3.621857
    26  O    3.519520   4.140620   3.373932   2.448775   3.199378
    27  C    3.614208   4.049279   3.147259   3.042735   4.026640
    28  H    3.711014   4.271049   2.978113   3.473210   4.487287
    29  H    4.651928   4.995307   4.198068   3.983836   4.905833
    30  H    3.125304   3.299261   2.731799   2.787454   3.817606
    31  C    2.496808   3.394266   2.916831   2.860656   2.713387
    32  O    3.168897   3.955598   3.832896   3.036234   2.446211
    33  O    3.097452   4.101905   3.093929   3.469939   3.576193
                   16         17         18         19         20
    16  H    0.000000
    17  C    2.126335   0.000000
    18  H    2.907507   1.086582   0.000000
    19  C    3.189912   1.536565   2.138078   0.000000
    20  H    3.120221   2.177851   3.034542   1.080963   0.000000
    21  H    3.916086   2.134381   2.554504   1.079671   1.757378
    22  N    4.180404   2.521567   2.616493   1.489029   2.087765
    23  H    4.047604   2.815662   2.928655   2.147349   2.458723
    24  H    5.010722   3.396643   3.548087   2.079185   2.414012
    25  H    4.571034   2.701926   2.372222   2.089672   2.946045
    26  O    2.395267   1.404652   2.036194   2.298288   2.741675
    27  C    2.808941   2.374594   2.559278   3.601949   4.106633
    28  H    3.516596   2.645193   2.357465   3.884218   4.609224
    29  H    3.579859   3.268804   3.529592   4.266675   4.677530
    30  H    2.339949   2.715841   2.968227   4.115886   4.481947
    31  C    3.922454   3.186620   2.882263   3.536089   4.006390
    32  O    4.035855   3.427737   3.460553   3.324403   3.506530
    33  O    4.532676   3.282818   2.616326   3.606240   4.346185
                   21         22         23         24         25
    21  H    0.000000
    22  N    2.090656   0.000000
    23  H    3.013099   1.075678   0.000000
    24  H    2.366375   1.005517   1.706085   0.000000
    25  H    2.460020   1.011021   1.612133   1.641791   0.000000
    26  O    2.336065   3.618830   4.106421   4.327001   3.803279
    27  C    3.611148   4.769892   5.177252   5.558523   4.754681
    28  H    3.836059   4.806908   5.244630   5.623400   4.561483
    29  H    4.065724   5.545357   6.054532   6.235327   5.571847
    30  H    4.358775   5.232501   5.436857   6.094551   5.269266
    31  C    4.438956   2.884353   2.134097   3.723017   2.734045
    32  O    4.313523   2.541445   1.506557   3.186317   2.785263
    33  O    4.282921   2.819277   2.440248   3.630357   2.245304
                   26         27         28         29         30
    26  O    0.000000
    27  C    1.397843   0.000000
    28  H    2.056687   1.087452   0.000000
    29  H    2.001608   1.080795   1.765969   0.000000
    30  H    2.066890   1.085073   1.765755   1.760844   0.000000
    31  C    4.566861   5.151411   5.015595   6.200670   5.106479
    32  O    4.811946   5.657480   5.709602   6.644109   5.644700
    33  O    4.580550   5.076148   4.707323   6.100649   5.219558
                   31         32         33
    31  C    0.000000
    32  O    1.254515   0.000000
    33  O    1.231473   2.211840   0.000000
 Stoichiometry    C9H18N2O4
 Framework group  C1[X(C9H18N2O4)]
 Deg. of freedom    93
 Full point group                 C1      NOp   1
 Largest Abelian subgroup         C1      NOp   1
 Largest concise Abelian subgroup C1      NOp   1
                         Standard orientation:                         
 ---------------------------------------------------------------------
 Center     Atomic      Atomic             Coordinates (Angstroms)
 Number     Number       Type             X           Y           Z
 ---------------------------------------------------------------------
      1          6           0       -4.532244    0.464923    1.024302
      2          1           0       -5.334181   -0.201677    0.726950
      3          1           0       -4.197900    0.187732    2.016919
      4          1           0       -4.930713    1.471105    1.045025
      5          6           0       -3.438207    0.396393   -0.021667
      6          8           0       -3.603976    0.846469   -1.126803
      7          7           0       -2.299872   -0.209650    0.359991
      8          1           0       -2.179991   -0.533857    1.293057
      9          6           0       -1.172492   -0.406539   -0.524013
     10          1           0       -1.533443   -0.694465   -1.498905
     11          6           0       -0.322440    0.887560   -0.650553
     12          1           0       -0.834005    1.540647   -1.346613
     13          1           0       -0.342415    1.385375    0.313705
     14          6           0        1.143368    0.693076   -1.097860
     15          1           0        1.204578   -0.144072   -1.781180
     16          1           0        1.467715    1.563172   -1.657386
     17          6           0        2.160544    0.524143    0.063575
     18          1           0        1.628652    0.401487    1.003099
     19          6           0        3.140090   -0.650580   -0.083218
     20          1           0        3.481827   -0.754647   -1.103448
     21          1           0        3.991603   -0.457833    0.551969
     22          7           0        2.547965   -1.953389    0.328222
     23          1           0        1.701378   -2.233306   -0.273458
     24          1           0        3.234604   -2.687922    0.320906
     25          1           0        2.127340   -1.904937    1.246312
     26          8           0        3.019330    1.630948    0.166126
     27          6           0        2.445139    2.803442    0.665655
     28          1           0        2.007756    2.637312    1.647311
     29          1           0        3.238367    3.532532    0.751307
     30          1           0        1.679377    3.196376    0.004902
     31          6           0       -0.286714   -1.516403    0.023044
     32          8           0        0.304207   -2.213178   -0.836681
     33          8           0       -0.090744   -1.556467    1.238163
 ---------------------------------------------------------------------
 Rotational constants (GHZ):      0.9036922      0.3453019      0.2852742
 Standard basis: 6-31G(d) (6D, 7F)
 There are   261 symmetry adapted cartesian basis functions of A   symmetry.
 There are   261 symmetry adapted basis functions of A   symmetry.
   261 basis functions,   492 primitive gaussians,   261 cartesian basis functions
    59 alpha electrons       59 beta electrons
       nuclear repulsion energy      1115.4191348633 Hartrees.
 NAtoms=   33 NActive=   33 NUniq=   33 SFac= 1.00D+00 NAtFMM=   60 NAOKFM=F Big=F
 Integral buffers will be    131072 words long.
 Raffenetti 1 integral format.
 Two-electron integral symmetry is turned on.
 One-electron integrals computed using PRISM.
 NBasis=   261 RedAO= T EigKep=  2.11D-03  NBF=   261
 NBsUse=   261 1.00D-06 EigRej= -1.00D+00 NBFU=   261
 ExpMin= 1.61D-01 ExpMax= 5.48D+03 ExpMxC= 8.25D+02 IAcc=1 IRadAn=         1 AccDes= 0.00D+00
 Harris functional with IExCor=  205 and IRadAn=       1 diagonalized for initial guess.
 HarFok:  IExCor=  205 AccDes= 0.00D+00 IRadAn=         1 IDoV= 1 UseB2=F ITyADJ=14
 ICtDFT=  3500011 ScaDFX=  1.000000  1.000000  1.000000  1.000000
 FoFCou: FMM=F IPFlag=           0 FMFlag=      100000 FMFlg1=           0
         NFxFlg=           0 DoJE=T BraDBF=F KetDBF=T FulRan=T
         wScrn=  0.000000 ICntrl=     500 IOpCl=  0 I1Cent=   200000004 NGrid=           0
         NMat0=    1 NMatS0=      1 NMatT0=    0 NMatD0=    1 NMtDS0=    0 NMtDT0=    0
 Petite list used in FoFCou.
 Keep R1 ints in memory in canonical form, NReq=593748559.
 Requested convergence on RMS density matrix=1.00D-08 within 128 cycles.
 Requested convergence on MAX density matrix=1.00D-06.
 Requested convergence on             energy=1.00D-06.
 No special actions if energy rises.
 SCF Done:  E(RHF) =  -759.635133175     A.U. after   14 cycles
            NFock= 14  Conv=0.36D-08     -V/T= 2.0014

 **********************************************************************

            Population analysis using the SCF density.

 **********************************************************************

 Orbital symmetries:
 BldTbl:  Degeneracy threshold= 1.00D-02
       Occupied  (A) (A) (A) (A) (A) (A) (A) (A) (A) (A) (A) (A)
                 (A) (A) (A) (A) (A) (A) (A) (A) (A) (A) (A) (A)
                 (A) (A) (A) (A) (A) (A) (A) (A) (A) (A) (A) (A)
                 (A) (A) (A) (A) (A) (A) (A) (A) (A) (A) (A) (A)
                 (A) (A) (A) (A) (A) (A) (A) (A) (A) (A) (A)
       Virtual   (A) (A) (A) (A) (A) (A) (A) (A) (A) (A) (A) (A)
                 (A) (A) (A) (A) (A) (A) (A) (A) (A) (A) (A) (A)
                 (A) (A) (A) (A) (A) (A) (A) (A) (A) (A) (A) (A)
                 (A) (A) (A) (A) (A) (A) (A) (A) (A) (A) (A) (A)
                 (A) (A) (A) (A) (A) (A) (A) (A) (A) (A) (A) (A)
                 (A) (A) (A) (A) (A) (A) (A) (A) (A) (A) (A) (A)
                 (A) (A) (A) (A) (A) (A) (A) (A) (A) (A) (A) (A)
                 (A) (A) (A) (A) (A) (A) (A) (A) (A) (A) (A) (A)
                 (A) (A) (A) (A) (A) (A) (A) (A) (A) (A) (A) (A)
                 (A) (A) (A) (A) (A) (A) (A) (A) (A) (A) (A) (A)
                 (A) (A) (A) (A) (A) (A) (A) (A) (A) (A) (A) (A)
                 (A) (A) (A) (A) (A) (A) (A) (A) (A) (A) (A) (A)
                 (A) (A) (A) (A) (A) (A) (A) (A) (A) (A) (A) (A)
                 (A) (A) (A) (A) (A) (A) (A) (A) (A) (A) (A) (A)
                 (A) (A) (A) (A) (A) (A) (A) (A) (A) (A) (A) (A)
                 (A) (A) (A) (A) (A) (A) (A) (A) (A) (A) (A) (A)
                 (A) (A) (A) (A) (A) (A) (A) (A) (A) (A)
 The electronic state is 1-A.
 Alpha  occ. eigenvalues --  -20.57762 -20.49665 -20.49618 -20.49394 -15.67904
 Alpha  occ. eigenvalues --  -15.56006 -11.32649 -11.32307 -11.30915 -11.30563
 Alpha  occ. eigenvalues --  -11.28071 -11.24422 -11.22519 -11.21733 -11.21604
 Alpha  occ. eigenvalues --   -1.40303  -1.38998  -1.36521  -1.31420  -1.27423
 Alpha  occ. eigenvalues --   -1.21367  -1.08473  -1.03505  -0.99219  -0.94555
 Alpha  occ. eigenvalues --   -0.93540  -0.85882  -0.82578  -0.78140  -0.77119
 Alpha  occ. eigenvalues --   -0.76418  -0.72546  -0.69985  -0.68057  -0.66040
 Alpha  occ. eigenvalues --   -0.65618  -0.64430  -0.63213  -0.61984  -0.61502
 Alpha  occ. eigenvalues --   -0.60306  -0.58737  -0.58506  -0.57091  -0.55215
 Alpha  occ. eigenvalues --   -0.54804  -0.54008  -0.52913  -0.52032  -0.50122
 Alpha  occ. eigenvalues --   -0.48612  -0.48220  -0.46763  -0.43006  -0.41309
 Alpha  occ. eigenvalues --   -0.39675  -0.39458  -0.39270  -0.35612
 Alpha virt. eigenvalues --    0.16974   0.21190   0.22482   0.23053   0.24228
 Alpha virt. eigenvalues --    0.25309   0.25895   0.26791   0.27975   0.28132
 Alpha virt. eigenvalues --    0.29143   0.29810   0.30685   0.31850   0.32239
 Alpha virt. eigenvalues --    0.34259   0.35063   0.35737   0.35950   0.36329
 Alpha virt. eigenvalues --    0.37313   0.39868   0.40953   0.41237   0.43137
 Alpha virt. eigenvalues --    0.45137   0.47230   0.49501   0.49662   0.50118
 Alpha virt. eigenvalues --    0.54017   0.59213   0.62961   0.67050   0.69112
 Alpha virt. eigenvalues --    0.71241   0.72443   0.75158   0.76217   0.76865
 Alpha virt. eigenvalues --    0.77384   0.77890   0.79621   0.81400   0.82785
 Alpha virt. eigenvalues --    0.84691   0.85231   0.86658   0.87116   0.89345
 Alpha virt. eigenvalues --    0.89920   0.91393   0.92057   0.93835   0.96832
 Alpha virt. eigenvalues --    0.97718   0.99915   1.01134   1.01492   1.02076
 Alpha virt. eigenvalues --    1.03556   1.03935   1.07771   1.08385   1.08750
 Alpha virt. eigenvalues --    1.10866   1.11804   1.12020   1.12854   1.13487
 Alpha virt. eigenvalues --    1.14565   1.15650   1.16434   1.17854   1.18037
 Alpha virt. eigenvalues --    1.18519   1.19593   1.20257   1.21245   1.21549
 Alpha virt. eigenvalues --    1.22170   1.22836   1.23897   1.24889   1.26568
 Alpha virt. eigenvalues --    1.28894   1.29212   1.32910   1.34422   1.36550
 Alpha virt. eigenvalues --    1.37018   1.38658   1.40755   1.41379   1.42907
 Alpha virt. eigenvalues --    1.45162   1.48843   1.49903   1.53590   1.55921
 Alpha virt. eigenvalues --    1.58352   1.61416   1.62853   1.64108   1.65748
 Alpha virt. eigenvalues --    1.67530   1.69441   1.73245   1.76356   1.78077
 Alpha virt. eigenvalues --    1.79149   1.80980   1.84462   1.86526   1.92187
 Alpha virt. eigenvalues --    1.92897   1.98531   2.00272   2.01761   2.03576
 Alpha virt. eigenvalues --    2.05925   2.08227   2.09775   2.12568   2.13671
 Alpha virt. eigenvalues --    2.14820   2.15360   2.16615   2.17131   2.18570
 Alpha virt. eigenvalues --    2.19668   2.20655   2.22442   2.23766   2.25232
 Alpha virt. eigenvalues --    2.26108   2.27852   2.28560   2.32518   2.33285
 Alpha virt. eigenvalues --    2.35840   2.35992   2.37590   2.39022   2.40491
 Alpha virt. eigenvalues --    2.44197   2.45485   2.47429   2.48517   2.51632
 Alpha virt. eigenvalues --    2.56539   2.57428   2.57851   2.59111   2.60306
 Alpha virt. eigenvalues --    2.63805   2.64802   2.70027   2.72477   2.73418
 Alpha virt. eigenvalues --    2.75186   2.76749   2.78768   2.80139   2.81252
 Alpha virt. eigenvalues --    2.84586   2.85544   2.88617   2.90085   2.93204
 Alpha virt. eigenvalues --    2.96329   2.98795   3.04667   3.07609   3.10095
 Alpha virt. eigenvalues --    3.11426   3.13097   3.16334   3.21774   3.24449
 Alpha virt. eigenvalues --    3.34996   3.35769   3.38751   3.40237   3.43409
 Alpha virt. eigenvalues --    3.57025   3.63146   4.23534   4.42398   4.44913
 Alpha virt. eigenvalues --    4.50770   4.54223   4.62333   4.65182   4.66994
 Alpha virt. eigenvalues --    4.67783   4.82484   4.88764   4.94473   4.96214
 Alpha virt. eigenvalues --    5.02675   5.17653
          Condensed to atoms (all electrons):
               1          2          3          4          5          6
     1  C    5.247279   0.380268   0.374679   0.382153   0.372064  -0.075826
     2  H    0.380268   0.487401  -0.023082  -0.020432  -0.026451   0.000421
     3  H    0.374679  -0.023082   0.535383  -0.023770  -0.040084   0.002814
     4  H    0.382153  -0.020432  -0.023770   0.487644  -0.029155   0.001555
     5  C    0.372064  -0.026451  -0.040084  -0.029155   4.129560   0.600417
     6  O   -0.075826   0.000421   0.002814   0.001555   0.600417   8.185987
     7  N   -0.111360   0.000708   0.006909   0.002501   0.276944  -0.104307
     8  H   -0.000790   0.000036   0.001171   0.000007  -0.013624   0.002088
     9  C    0.004991  -0.000132   0.000130  -0.000092  -0.027862   0.009030
    10  H    0.000122   0.000013  -0.000005  -0.000009  -0.000251   0.003888
    11  C   -0.000294  -0.000005  -0.000011   0.000024  -0.003287  -0.001813
    12  H    0.000094   0.000000  -0.000007  -0.000004   0.001329   0.003974
    13  H   -0.000065   0.000001   0.000009  -0.000003   0.000612  -0.000231
    14  C    0.000003   0.000000   0.000000   0.000000   0.000119   0.000046
    15  H    0.000000   0.000000   0.000000   0.000000   0.000001   0.000000
    16  H    0.000000   0.000000   0.000000   0.000000  -0.000004   0.000000
    17  C    0.000000   0.000000   0.000000   0.000000  -0.000005  -0.000001
    18  H    0.000000   0.000000   0.000000   0.000000   0.000001   0.000000
    19  C    0.000000   0.000000   0.000000   0.000000   0.000000   0.000000
    20  H    0.000000   0.000000   0.000000   0.000000   0.000000   0.000000
    21  H    0.000000   0.000000   0.000000   0.000000   0.000000   0.000000
    22  N    0.000000   0.000000   0.000000   0.000000   0.000000   0.000000
    23  H    0.000000   0.000000   0.000000   0.000000   0.000002   0.000000
    24  H    0.000000   0.000000   0.000000   0.000000   0.000000   0.000000
    25  H    0.000000   0.000000   0.000000   0.000000   0.000000   0.000000
    26  O    0.000000   0.000000   0.000000   0.000000   0.000000   0.000000
    27  C    0.000000   0.000000   0.000000   0.000000   0.000000   0.000000
    28  H    0.000000   0.000000   0.000000   0.000000   0.000000   0.000000
    29  H    0.000000   0.000000   0.000000   0.000000   0.000000   0.000000
    30  H    0.000000   0.000000   0.000000   0.000000   0.000000   0.000000
    31  C   -0.000008   0.000002  -0.000034   0.000000   0.003175   0.000387
    32  O    0.000000   0.000000   0.000000   0.000000  -0.000086   0.000000
    33  O   -0.000024   0.000000  -0.000016   0.000000   0.000110  -0.000003
               7          8          9         10         11         12
     1  C   -0.111360  -0.000790   0.004991   0.000122  -0.000294   0.000094
     2  H    0.000708   0.000036  -0.000132   0.000013  -0.000005   0.000000
     3  H    0.006909   0.001171   0.000130  -0.000005  -0.000011  -0.000007
     4  H    0.002501   0.000007  -0.000092  -0.000009   0.000024  -0.000004
     5  C    0.276944  -0.013624  -0.027862  -0.000251  -0.003287   0.001329
     6  O   -0.104307   0.002088   0.009030   0.003888  -0.001813   0.003974
     7  N    7.427030   0.310921   0.159290  -0.040555  -0.065867  -0.001712
     8  H    0.310921   0.301629  -0.028694   0.002647   0.002714  -0.000202
     9  C    0.159290  -0.028694   5.084136   0.402966   0.339346  -0.032497
    10  H   -0.040555   0.002647   0.402966   0.469014  -0.035269  -0.004504
    11  C   -0.065867   0.002714   0.339346  -0.035269   5.158780   0.400784
    12  H   -0.001712  -0.000202  -0.032497  -0.004504   0.400784   0.483048
    13  H    0.000500   0.000759  -0.042219   0.003707   0.396443  -0.025730
    14  C    0.003921  -0.000048  -0.037505   0.000135   0.291774  -0.033958
    15  H    0.000126  -0.000002  -0.004626   0.001533  -0.033683   0.000065
    16  H   -0.000051   0.000002   0.002812  -0.000159  -0.033983  -0.005464
    17  C   -0.000069  -0.000012  -0.001141   0.000058  -0.037201   0.003181
    18  H   -0.000053   0.000043  -0.000740   0.000012  -0.000315   0.000170
    19  C    0.000003   0.000001   0.000203   0.000000   0.002683  -0.000087
    20  H    0.000000   0.000000  -0.000019   0.000000   0.000124   0.000000
    21  H    0.000000   0.000000  -0.000004   0.000000  -0.000121   0.000001
    22  N    0.000010   0.000006  -0.001756   0.000026   0.000292  -0.000002
    23  H   -0.000097  -0.000012   0.004993  -0.000071  -0.001041   0.000019
    24  H    0.000000   0.000000   0.000007   0.000000   0.000003   0.000000
    25  H   -0.000005  -0.000019   0.000779  -0.000013  -0.000096   0.000002
    26  O    0.000000   0.000000  -0.000010   0.000001   0.002054  -0.000076
    27  C    0.000000   0.000000   0.000011   0.000000  -0.000327   0.000003
    28  H    0.000000   0.000000  -0.000013   0.000000   0.000126  -0.000011
    29  H    0.000000   0.000000   0.000000   0.000000   0.000033  -0.000003
    30  H   -0.000001   0.000000   0.000025  -0.000001  -0.001300   0.000349
    31  C   -0.035812  -0.006521   0.370935  -0.035489  -0.041827   0.003237
    32  O    0.002480   0.000494  -0.097329   0.005708  -0.003549  -0.000185
    33  O   -0.002575   0.020870  -0.120355   0.003176   0.006398  -0.000013
              13         14         15         16         17         18
     1  C   -0.000065   0.000003   0.000000   0.000000   0.000000   0.000000
     2  H    0.000001   0.000000   0.000000   0.000000   0.000000   0.000000
     3  H    0.000009   0.000000   0.000000   0.000000   0.000000   0.000000
     4  H   -0.000003   0.000000   0.000000   0.000000   0.000000   0.000000
     5  C    0.000612   0.000119   0.000001  -0.000004  -0.000005   0.000001
     6  O   -0.000231   0.000046   0.000000   0.000000  -0.000001   0.000000
     7  N    0.000500   0.003921   0.000126  -0.000051  -0.000069  -0.000053
     8  H    0.000759  -0.000048  -0.000002   0.000002  -0.000012   0.000043
     9  C   -0.042219  -0.037505  -0.004626   0.002812  -0.001141  -0.000740
    10  H    0.003707   0.000135   0.001533  -0.000159   0.000058   0.000012
    11  C    0.396443   0.291774  -0.033683  -0.033983  -0.037201  -0.000315
    12  H   -0.025730  -0.033958   0.000065  -0.005464   0.003181   0.000170
    13  H    0.547836  -0.046727   0.003614   0.000228  -0.005135   0.002022
    14  C   -0.046727   5.297727   0.387925   0.396214   0.314721  -0.055688
    15  H    0.003614   0.387925   0.480713  -0.020384  -0.038767   0.002665
    16  H    0.000228   0.396214  -0.020384   0.509250  -0.043761   0.003161
    17  C   -0.005135   0.314721  -0.038767  -0.043761   4.840592   0.408325
    18  H    0.002022  -0.055688   0.002665   0.003161   0.408325   0.520035
    19  C    0.000330  -0.045130  -0.003505   0.001085   0.347911  -0.050515
    20  H    0.000004  -0.004009   0.001228   0.000686  -0.030933   0.003490
    21  H   -0.000004   0.004137   0.000140  -0.000153  -0.040059  -0.001418
    22  N   -0.000027   0.001271   0.000199   0.000045  -0.043754   0.000669
    23  H    0.000023   0.002466   0.000316  -0.000022  -0.002836  -0.000409
    24  H    0.000001  -0.000213  -0.000003   0.000002   0.003551  -0.000052
    25  H   -0.000012  -0.000075   0.000021   0.000001  -0.000555   0.003252
    26  O    0.000286  -0.050339   0.002413  -0.001603   0.199215  -0.036146
    27  C   -0.000289  -0.003603   0.000096  -0.001375  -0.048136  -0.004971
    28  H    0.000456  -0.001170   0.000005   0.000429  -0.005814   0.006978
    29  H    0.000034  -0.000212   0.000005  -0.000098   0.004799  -0.000065
    30  H   -0.000526   0.004531  -0.000058  -0.001042  -0.004021  -0.000929
    31  C   -0.002390  -0.009605  -0.002594   0.000382   0.000238  -0.000334
    32  O    0.000118   0.000136   0.008534   0.000313  -0.002329  -0.000665
    33  O    0.001488  -0.003717   0.000296  -0.000040   0.001256   0.008646
              19         20         21         22         23         24
     1  C    0.000000   0.000000   0.000000   0.000000   0.000000   0.000000
     2  H    0.000000   0.000000   0.000000   0.000000   0.000000   0.000000
     3  H    0.000000   0.000000   0.000000   0.000000   0.000000   0.000000
     4  H    0.000000   0.000000   0.000000   0.000000   0.000000   0.000000
     5  C    0.000000   0.000000   0.000000   0.000000   0.000002   0.000000
     6  O    0.000000   0.000000   0.000000   0.000000   0.000000   0.000000
     7  N    0.000003   0.000000   0.000000   0.000010  -0.000097   0.000000
     8  H    0.000001   0.000000   0.000000   0.000006  -0.000012   0.000000
     9  C    0.000203  -0.000019  -0.000004  -0.001756   0.004993   0.000007
    10  H    0.000000   0.000000   0.000000   0.000026  -0.000071   0.000000
    11  C    0.002683   0.000124  -0.000121   0.000292  -0.001041   0.000003
    12  H   -0.000087   0.000000   0.000001  -0.000002   0.000019   0.000000
    13  H    0.000330   0.000004  -0.000004  -0.000027   0.000023   0.000001
    14  C   -0.045130  -0.004009   0.004137   0.001271   0.002466  -0.000213
    15  H   -0.003505   0.001228   0.000140   0.000199   0.000316  -0.000003
    16  H    0.001085   0.000686  -0.000153   0.000045  -0.000022   0.000002
    17  C    0.347911  -0.030933  -0.040059  -0.043754  -0.002836   0.003551
    18  H   -0.050515   0.003490  -0.001418   0.000669  -0.000409  -0.000052
    19  C    5.087599   0.396383   0.402166   0.147280  -0.004914  -0.022131
    20  H    0.396383   0.472176  -0.023525  -0.035919  -0.002102  -0.001743
    21  H    0.402166  -0.023525   0.473403  -0.037202   0.001526  -0.003030
    22  N    0.147280  -0.035919  -0.037202   7.230269   0.151558   0.316356
    23  H   -0.004914  -0.002102   0.001526   0.151558   0.227225  -0.005798
    24  H   -0.022131  -0.001743  -0.003030   0.316356  -0.005798   0.302889
    25  H   -0.019033   0.002674  -0.001973   0.286219  -0.002808  -0.010017
    26  O   -0.059395   0.002159   0.005190   0.001958  -0.000018  -0.000055
    27  C    0.005688  -0.000204  -0.000087  -0.000112  -0.000002   0.000003
    28  H   -0.000020   0.000006  -0.000048   0.000009   0.000000   0.000000
    29  H   -0.000097   0.000006  -0.000055   0.000000   0.000000   0.000000
    30  H   -0.000319   0.000002   0.000051   0.000003   0.000000   0.000000
    31  C   -0.001820  -0.000014  -0.000009   0.002557  -0.016131   0.000565
    32  O    0.004277   0.000112  -0.000017  -0.094620   0.123046   0.001340
    33  O   -0.001430  -0.000030  -0.000038  -0.008874  -0.005818   0.000349
              25         26         27         28         29         30
     1  C    0.000000   0.000000   0.000000   0.000000   0.000000   0.000000
     2  H    0.000000   0.000000   0.000000   0.000000   0.000000   0.000000
     3  H    0.000000   0.000000   0.000000   0.000000   0.000000   0.000000
     4  H    0.000000   0.000000   0.000000   0.000000   0.000000   0.000000
     5  C    0.000000   0.000000   0.000000   0.000000   0.000000   0.000000
     6  O    0.000000   0.000000   0.000000   0.000000   0.000000   0.000000
     7  N   -0.000005   0.000000   0.000000   0.000000   0.000000  -0.000001
     8  H   -0.000019   0.000000   0.000000   0.000000   0.000000   0.000000
     9  C    0.000779  -0.000010   0.000011  -0.000013   0.000000   0.000025
    10  H   -0.000013   0.000001   0.000000   0.000000   0.000000  -0.000001
    11  C   -0.000096   0.002054  -0.000327   0.000126   0.000033  -0.001300
    12  H    0.000002  -0.000076   0.000003  -0.000011  -0.000003   0.000349
    13  H   -0.000012   0.000286  -0.000289   0.000456   0.000034  -0.000526
    14  C   -0.000075  -0.050339  -0.003603  -0.001170  -0.000212   0.004531
    15  H    0.000021   0.002413   0.000096   0.000005   0.000005  -0.000058
    16  H    0.000001  -0.001603  -0.001375   0.000429  -0.000098  -0.001042
    17  C   -0.000555   0.199215  -0.048136  -0.005814   0.004799  -0.004021
    18  H    0.003252  -0.036146  -0.004971   0.006978  -0.000065  -0.000929
    19  C   -0.019033  -0.059395   0.005688  -0.000020  -0.000097  -0.000319
    20  H    0.002674   0.002159  -0.000204   0.000006   0.000006   0.000002
    21  H   -0.001973   0.005190  -0.000087  -0.000048  -0.000055   0.000051
    22  N    0.286219   0.001958  -0.000112   0.000009   0.000000   0.000003
    23  H   -0.002808  -0.000018  -0.000002   0.000000   0.000000   0.000000
    24  H   -0.010017  -0.000055   0.000003   0.000000   0.000000   0.000000
    25  H    0.265695   0.000015  -0.000013   0.000000   0.000000   0.000000
    26  O    0.000015   8.483787   0.209198  -0.039943  -0.034590  -0.039536
    27  C   -0.000013   0.209198   4.827112   0.392892   0.403846   0.393020
    28  H    0.000000  -0.039943   0.392892   0.569114  -0.029258  -0.043795
    29  H    0.000000  -0.034590   0.403846  -0.029258   0.504149  -0.031003
    30  H    0.000000  -0.039536   0.393020  -0.043795  -0.031003   0.564759
    31  C   -0.000899   0.000028   0.000005  -0.000002   0.000000   0.000003
    32  O   -0.001181  -0.000003   0.000000   0.000000   0.000000   0.000000
    33  O    0.022950   0.000032   0.000005  -0.000009   0.000000   0.000000
              31         32         33
     1  C   -0.000008   0.000000  -0.000024
     2  H    0.000002   0.000000   0.000000
     3  H   -0.000034   0.000000  -0.000016
     4  H    0.000000   0.000000   0.000000
     5  C    0.003175  -0.000086   0.000110
     6  O    0.000387   0.000000  -0.000003
     7  N   -0.035812   0.002480  -0.002575
     8  H   -0.006521   0.000494   0.020870
     9  C    0.370935  -0.097329  -0.120355
    10  H   -0.035489   0.005708   0.003176
    11  C   -0.041827  -0.003549   0.006398
    12  H    0.003237  -0.000185  -0.000013
    13  H   -0.002390   0.000118   0.001488
    14  C   -0.009605   0.000136  -0.003717
    15  H   -0.002594   0.008534   0.000296
    16  H    0.000382   0.000313  -0.000040
    17  C    0.000238  -0.002329   0.001256
    18  H   -0.000334  -0.000665   0.008646
    19  C   -0.001820   0.004277  -0.001430
    20  H   -0.000014   0.000112  -0.000030
    21  H   -0.000009  -0.000017  -0.000038
    22  N    0.002557  -0.094620  -0.008874
    23  H   -0.016131   0.123046  -0.005818
    24  H    0.000565   0.001340   0.000349
    25  H   -0.000899  -0.001181   0.022950
    26  O    0.000028  -0.000003   0.000032
    27  C    0.000005   0.000000   0.000005
    28  H   -0.000002   0.000000  -0.000009
    29  H    0.000000   0.000000   0.000000
    30  H    0.000003   0.000000   0.000000
    31  C    4.122689   0.403094   0.483041
    32  O    0.403094   8.526390  -0.091781
    33  O    0.483041  -0.091781   8.417790
 Mulliken charges:
               1
     1  C   -0.573285
     2  H    0.201252
     3  H    0.165915
     4  H    0.199583
     5  C    0.756475
     6  O   -0.628425
     7  N   -0.828878
     8  H    0.406538
     9  C    0.015340
    10  H    0.223321
    11  C   -0.341588
    12  H    0.208200
    13  H    0.164887
    14  C   -0.413128
    15  H    0.213726
    16  H    0.193527
    17  C    0.180679
    18  H    0.192830
    19  C   -0.187213
    20  H    0.219448
    21  H    0.221130
    22  N   -0.916460
    23  H    0.530905
    24  H    0.417976
    25  H    0.455090
    26  O   -0.644621
    27  C   -0.172757
    28  H    0.150067
    29  H    0.182508
    30  H    0.159790
    31  C    0.763149
    32  O   -0.784300
    33  O   -0.731680
 Sum of Mulliken charges =   0.00000
 Mulliken charges with hydrogens summed into heavy atoms:
               1
     1  C   -0.006536
     5  C    0.756475
     6  O   -0.628425
     7  N   -0.422340
     9  C    0.238661
    11  C    0.031499
    14  C   -0.005875
    17  C    0.373509
    19  C    0.253365
    22  N    0.487511
    26  O   -0.644621
    27  C    0.319608
    31  C    0.763149
    32  O   -0.784300
    33  O   -0.731680
 DipInt: DoE/N= T F RetVal/Mat= T F Init=T NMatP=  1 IDeriv=0 Min/MaxMlt=  0  4
 Entering OneElI...
 OneElI was handed  1073564718 working-precision words.
 Multipole integrals L=0 to 4 MinM= 0 MaxM= 0.
 Requested accuracy = 0.1000D-12
 ShPair: Thresh= 1.00D-13 NBox=     0 BxSize= 0.00D+00 RnKept= 1.77D+01
         NSMCal=                 4656 NSMKep=                3988
 PrsmSu:  NPrtUS=   1 ThrOK=F IAlg=1 NPAlg=1 LenDen=           0.
 Prism:   IPart=     0 DynPar=F LinDyn=F Incr=          39.
 PRISM was handed  1073235976 working-precision words and  3988 shell-pairs
 IPart=  0 NShTot=        3988 NBatch=          69 AvBLen=        57.8
 PrSmSu:  NxtVal=             40.
 Electronic moments (au):
       -118.00000000          2.89409393         -0.11054127          1.36526849
      -2710.27809256       -939.80494925       -339.72513844         -6.78472277
         -5.94342664          0.96228699       5101.44774587       -379.52762755
          7.37610662      -2215.83584682      -2161.52554287       -954.67760875
        428.02219206        -26.56955545       -278.84155244       -308.72126626
    -126979.82372535     -18600.79638114      -2565.67124941       6401.85039312
       4829.32951828      -4953.41315810      -1920.82906968        446.06179805
        208.59059930     -16738.44739421      -8006.15027383      -2589.98874510
       -953.47046742      -2024.32564118        228.03150745
 Electronic spatial extent (au):  <R**2>=           3989.8082
 DipInt: DoE/N= F T RetVal/Mat= T F Init=T NMatP=  1 IDeriv=0 Min/MaxMlt=  0  4
 Nuclear    moments (au):
        118.00000000          0.00000000          0.00000000          0.00000000
       2651.09281254        874.10177307        268.98886518          0.00000000
          0.00000000          0.00000000      -5013.46772563        389.11469333
          0.08544629       2282.58246342       2053.86254962       1031.60662644
       -403.43693253         29.96752978        301.32096372        289.79001699
     117995.74611765      15691.99635129       1445.14526882      -6721.12520197
      -5179.96452068       4809.69731726       1879.38322882       -445.78802757
       -215.49833532      14988.84344094       6220.23680321       1847.96442907
       1039.40885069       2092.61341635       -218.79046015
 Total      moments (au):
          0.00000000          2.89409393         -0.11054127          1.36526849
        -59.18528003        -65.70317618        -70.73627326         -6.78472277
         -5.94342664          0.96228699         87.98002024          9.58706578
          7.46155291         66.74661660       -107.66299325         76.92901769
         24.58525953          3.39797433         22.47941128        -18.93124927
      -8984.07760771      -2908.80002986      -1120.52598059       -319.27480886
       -350.63500240       -143.71584084        -41.44584086          0.27377048
         -6.90773601      -1749.60395326      -1785.91347062       -742.02431604
         85.93838327         68.28777517          9.24104730
 Traceless Quadrup. (au):
          6.02296313         -0.49493302         -5.52803010         -6.78472277
         -5.94342664          0.96228699
 Charge=              0.0000 electrons
 Dipole moment (field-independent basis, Debye):
    X=              7.3561    Y=             -0.2810    Z=              3.4702  Tot=              8.1383
 Quadrupole moment (field-independent basis, Debye-Ang):
   XX=            -79.6062   YY=            -88.3730   ZZ=            -95.1427
   XY=             -9.1257   XZ=             -7.9941   YZ=              1.2943
 Traceless Quadrupole moment (field-independent basis, Debye-Ang):
   XX=              8.1011   YY=             -0.6657   ZZ=             -7.4354
   XY=             -9.1257   XZ=             -7.9941   YZ=              1.2943
 Octapole moment (field-independent basis, Debye-Ang**2):
  XXX=             62.6208  YYY=              6.8237  ZZZ=              5.3108  XYY=             47.5077
  XXY=            -76.6304  XXZ=             54.7551  XZZ=             17.4988  YZZ=              2.4185
  YYZ=             16.0000  XYZ=            -13.4745
 Hexadecapole moment (field-independent basis, Debye-Ang**3):
 XXXX=          -3383.8342 YYYY=          -1095.5935 ZZZZ=           -422.0438 XXXY=           -120.2542
 XXXZ=           -132.0659 YYYX=            -54.1303 YYYZ=            -15.6105 ZZZX=              0.1031
 ZZZY=             -2.6018 XXYY=           -658.9847 XXZZ=           -672.6606 YYZZ=           -279.4819
 XXYZ=             32.3685 YYXZ=             25.7204 ZZXY=              3.4806
 N-N= 1.115419134863D+03 E-N=-4.014667532263D+03  KE= 7.585514445056D+02
 Entering OneElI...
 OneElI was handed  1073597823 working-precision words.
 Calculate electrostatic properties
    NBasis =   261  MinDer = 0  MaxDer = 0
    NGrid  =    33  NMatD  =   1
 Requested accuracy = 0.1000D-12
 PrtBox:  NBox=     1 Levels=  1 BoxLen=   29.89 SMaxX=       17.62
          Shift=           10.080140            5.079436            3.365942
 Box      1 Number                   0 centers from      1 to     96:
 ShPair: Thresh= 1.00D-13 NBox=     1 BxSize= 2.99D+01 RnKept= 1.69D+01
         NSMCal=                 4656 NSMKep=                3624
 PrsmSu:  NPrtUS=   8 ThrOK=T IAlg=1 NPAlg=1 LenDen=           0.
 Prism:   IPart=     0 DynPar=F LinDyn=F Incr=         149.
 PRISM was handed   134070232 working-precision words and  3624 shell-pairs
 PRISM was handed   134070232 working-precision words and  3624 shell-pairs
 PRISM was handed   134070232 working-precision words and  3624 shell-pairs
 PRISM was handed   134070232 working-precision words and  3624 shell-pairs
 PRISM was handed   134070232 working-precision words and  3624 shell-pairs
 PRISM was handed   134070232 working-precision words and  3624 shell-pairs
 PRISM was handed   134070232 working-precision words and  3624 shell-pairs
 PRISM was handed   134070232 working-precision words and  3624 shell-pairs
 IPart=  5 NShTot=       14718 NBatch=         446 AvBLen=        33.0
 IPart=  3 NShTot=       14916 NBatch=         452 AvBLen=        33.0
 IPart=  4 NShTot=       14817 NBatch=         449 AvBLen=        33.0
 IPart=  7 NShTot=       14322 NBatch=         434 AvBLen=        33.0
 IPart=  2 NShTot=       15180 NBatch=         460 AvBLen=        33.0
 IPart=  1 NShTot=       15378 NBatch=         466 AvBLen=        33.0
 IPart=  6 NShTot=       14619 NBatch=         443 AvBLen=        33.0
 IPart=  0 NShTot=       15642 NBatch=         474 AvBLen=        33.0
 PrSmSu:  NxtVal=           1193.
 --------------------------------------------------------
       Center         ----      EFG at Nuclei      ----
                      3XX-RR        3YY-RR        3ZZ-RR
 --------------------------------------------------------
     1   Atom       -0.005683      0.032679     -0.026996
     2   Atom       -0.101850     -0.019007      0.120858
     3   Atom        0.104700      0.133983     -0.238683
     4   Atom        0.093928     -0.252715      0.158786
     5   Atom        0.101418     -0.378907      0.277489
     6   Atom        1.262172     -0.550324     -0.711847
     7   Atom       -0.301041      0.642620     -0.341579
     8   Atom        0.182742      0.177358     -0.360100
     9   Atom       -0.127808      0.083601      0.044207
    10   Atom        0.099757      0.128395     -0.228152
    11   Atom       -0.038160     -0.020814      0.058974
    12   Atom        0.053524     -0.015847     -0.037677
    13   Atom        0.148600      0.061484     -0.210084
    14   Atom       -0.021483      0.070874     -0.049391
    15   Atom        0.145620     -0.115786     -0.029834
    16   Atom        0.112016     -0.145610      0.033594
    17   Atom        0.008425     -0.231484      0.223059
    18   Atom        0.049294      0.129705     -0.179000
    19   Atom        0.077950     -0.238489      0.160540
    20   Atom        0.116514      0.138298     -0.254812
    21   Atom       -0.129844      0.134298     -0.004454
    22   Atom        0.117807     -0.237889      0.120082
    23   Atom       -0.042995      0.051987     -0.008992
    24   Atom       -0.084161     -0.119805      0.203966
    25   Atom        0.120118      0.166358     -0.286476
    26   Atom        0.098871     -1.632022      1.533151
    27   Atom        0.115520     -0.208369      0.092849
    28   Atom        0.087203      0.128538     -0.215741
    29   Atom       -0.096051     -0.065251      0.161302
    30   Atom       -0.069760      0.086336     -0.016576
    31   Atom       -0.188268     -0.106341      0.294608
    32   Atom       -0.249526     -0.061378      0.310904
    33   Atom        0.236297      0.658203     -0.894500
 --------------------------------------------------------
                        XY            XZ            YZ
 --------------------------------------------------------
     1   Atom        0.000782      0.030831     -0.003988
     2   Atom       -0.216541     -0.090860     -0.082115
     3   Atom        0.042710     -0.132510      0.111920
     4   Atom        0.163128      0.009061     -0.009603
     5   Atom       -0.222726     -0.131597     -0.231674
     6   Atom       -0.586982     -0.578982      0.252947
     7   Atom        0.471306      0.176669      0.309202
     8   Atom        0.045375     -0.047615      0.199685
     9   Atom        0.027493      0.208065     -0.023924
    10   Atom       -0.044709     -0.133413     -0.113613
    11   Atom       -0.019806      0.038000     -0.034025
    12   Atom        0.128829     -0.137615      0.184829
    13   Atom       -0.001666      0.005737     -0.191799
    14   Atom        0.023120     -0.043508      0.037528
    15   Atom        0.031314      0.014488     -0.226479
    16   Atom       -0.112105      0.067571      0.194671
    17   Atom       -0.165678     -0.010408     -0.032666
    18   Atom       -0.021193      0.183605      0.039922
    19   Atom       -0.214802      0.080174      0.156210
    20   Atom        0.010186      0.141552     -0.040827
    21   Atom       -0.065158     -0.218863     -0.039309
    22   Atom        0.127402      0.243151      0.122959
    23   Atom       -0.042670     -0.105339     -0.044443
    24   Atom        0.299769      0.011233      0.002682
    25   Atom        0.013398      0.198161     -0.023305
    26   Atom       -0.368553      0.360744     -0.961389
    27   Atom        0.179409      0.081590     -0.173207
    28   Atom       -0.024229      0.169455      0.061129
    29   Atom       -0.229325     -0.024100     -0.032407
    30   Atom        0.121622     -0.199901      0.091873
    31   Atom       -0.457827      0.067964      0.017223
    32   Atom       -0.024353      0.810314     -0.858138
    33   Atom       -0.911565     -0.282841      0.189065
 --------------------------------------------------------


 ---------------------------------------------------------------------------------
              Nuclear Quadrupole Coupling Constant in Principal Axis System
 ---------------------------------------------------------------------------------

       Atom             a.u.   MegaHertz   Gauss  10(-4) cm-1        Axes

              Baa    -0.5196     2.496     0.890     0.832  0.8588 -0.2259 -0.4598
     7 N(14)  Bbb    -0.4159     1.997     0.713     0.666  0.3477 -0.4022  0.8470
              Bcc     0.9355    -4.493    -1.603    -1.499  0.3763  0.8872  0.2669
 
              Baa    -0.2863     1.375     0.491     0.459 -0.2008  0.9645 -0.1717
    22 N(14)  Bbb    -0.1241     0.596     0.213     0.199 -0.7035 -0.0200  0.7104
              Bcc     0.4104    -1.971    -0.703    -0.658  0.6818  0.2634  0.6825
 

 ---------------------------------------------------------------------------------

 No NMR shielding tensors so no spin-rotation constants.
 Leave Link  601 at Thu May 19 00:28:04 2016, MaxMem=  1073741824 cpu:         2.1
 FitSet:  NAtFit=    33 NAtPot=    33 NAtFrz=     0 MDM=    37 TotChg=   0.00000
 Breneman (CHELPG) radii used.
 Atom Element Radius
    1     6    1.50
    2     1    1.45
    3     1    1.45
    4     1    1.45
    5     6    1.50
    6     8    1.70
    7     7    1.70
    8     1    1.45
    9     6    1.50
   10     1    1.45
   11     6    1.50
   12     1    1.45
   13     1    1.45
   14     6    1.50
   15     1    1.45
   16     1    1.45
   17     6    1.50
   18     1    1.45
   19     6    1.50
   20     1    1.45
   21     1    1.45
   22     7    1.70
   23     1    1.45
   24     1    1.45
   25     1    1.45
   26     8    1.70
   27     6    1.50
   28     1    1.45
   29     1    1.45
   30     1    1.45
   31     6    1.50
   32     8    1.70
   33     8    1.70
 Generate Potential Derived Charges using the Breneman model, NDens= 1.
 Grid spacing= 0.300 Box extension= 2.800
 NStep X,Y,Z=   51     41     33   Total possible points=       69003
 Number of Points to Fit=   17359
 Approximate Molecular Volume= 1293.29 A**3

 **********************************************************************

            Electrostatic Properties Using The SCF Density

 **********************************************************************

       Atomic Center    1 is at  -4.532244  0.464923  1.024302
       Atomic Center    2 is at  -5.334181 -0.201677  0.726950
       Atomic Center    3 is at  -4.197900  0.187732  2.016919
       Atomic Center    4 is at  -4.930713  1.471105  1.045025
       Atomic Center    5 is at  -3.438207  0.396393 -0.021667
       Atomic Center    6 is at  -3.603976  0.846469 -1.126803
       Atomic Center    7 is at  -2.299872 -0.209650  0.359991
       Atomic Center    8 is at  -2.179991 -0.533857  1.293057
       Atomic Center    9 is at  -1.172492 -0.406539 -0.524013
       Atomic Center   10 is at  -1.533443 -0.694465 -1.498905
       Atomic Center   11 is at  -0.322440  0.887560 -0.650553
       Atomic Center   12 is at  -0.834005  1.540647 -1.346613
       Atomic Center   13 is at  -0.342415  1.385375  0.313705
       Atomic Center   14 is at   1.143368  0.693076 -1.097860
       Atomic Center   15 is at   1.204578 -0.144072 -1.781180
       Atomic Center   16 is at   1.467715  1.563172 -1.657386
       Atomic Center   17 is at   2.160544  0.524143  0.063575
       Atomic Center   18 is at   1.628652  0.401487  1.003099
       Atomic Center   19 is at   3.140090 -0.650580 -0.083218
       Atomic Center   20 is at   3.481827 -0.754647 -1.103448
       Atomic Center   21 is at   3.991603 -0.457833  0.551969
       Atomic Center   22 is at   2.547965 -1.953389  0.328222
       Atomic Center   23 is at   1.701378 -2.233306 -0.273458
       Atomic Center   24 is at   3.234604 -2.687922  0.320906
       Atomic Center   25 is at   2.127340 -1.904937  1.246312
       Atomic Center   26 is at   3.019330  1.630948  0.166126
       Atomic Center   27 is at   2.445139  2.803442  0.665655
       Atomic Center   28 is at   2.007756  2.637312  1.647311
       Atomic Center   29 is at   3.238367  3.532532  0.751307
       Atomic Center   30 is at   1.679377  3.196376  0.004902
       Atomic Center   31 is at  -0.286714 -1.516403  0.023044
       Atomic Center   32 is at   0.304207 -2.213178 -0.836681
       Atomic Center   33 is at  -0.090744 -1.556467  1.238163
      ESP Fit Center   34 is at  -7.871289 -1.377695  0.717870
      ESP Fit Center   35 is at  -7.871289 -1.077695  0.117870
      ESP Fit Center   36 is at  -7.871289 -1.077695  0.417870
      ESP Fit Center   37 is at  -7.871289 -1.077695  0.717870
      ESP Fit Center   38 is at  -7.871289 -1.077695  1.017870
      ESP Fit Center   39 is at  -7.871289 -1.077695  1.317870
      ESP Fit Center   40 is at  -7.871289 -0.777695 -0.182130
      ESP Fit Center   41 is at  -7.871289 -0.777695  0.117870
      ESP Fit Center   42 is at  -7.871289 -0.777695  0.417870
      ESP Fit Center   43 is at  -7.871289 -0.777695  0.717870
      ESP Fit Center   44 is at  -7.871289 -0.777695  1.017870
      ESP Fit Center   45 is at  -7.871289 -0.777695  1.317870
      ESP Fit Center   46 is at  -7.871289 -0.777695  1.617870
      ESP Fit Center   47 is at  -7.871289 -0.477695 -0.182130
      ESP Fit Center   48 is at  -7.871289 -0.477695  0.117870
      ESP Fit Center   49 is at  -7.871289 -0.477695  0.417870
      ESP Fit Center   50 is at  -7.871289 -0.477695  0.717870
      ESP Fit Center   51 is at  -7.871289 -0.477695  1.017870
      ESP Fit Center   52 is at  -7.871289 -0.477695  1.317870
      ESP Fit Center   53 is at  -7.871289 -0.477695  1.617870
      ESP Fit Center   54 is at  -7.871289 -0.177695 -0.182130
      ESP Fit Center   55 is at  -7.871289 -0.177695  0.117870
      ESP Fit Center   56 is at  -7.871289 -0.177695  0.417870
      ESP Fit Center   57 is at  -7.871289 -0.177695  0.717870
      ESP Fit Center   58 is at  -7.871289 -0.177695  1.017870
      ESP Fit Center   59 is at  -7.871289 -0.177695  1.317870
      ESP Fit Center   60 is at  -7.871289 -0.177695  1.617870
      ESP Fit Center   61 is at  -7.871289  0.122305 -0.182130
      ESP Fit Center   62 is at  -7.871289  0.122305  0.117870
      ESP Fit Center   63 is at  -7.871289  0.122305  0.417870
      ESP Fit Center   64 is at  -7.871289  0.122305  0.717870
      ESP Fit Center   65 is at  -7.871289  0.122305  1.017870
      ESP Fit Center   66 is at  -7.871289  0.122305  1.317870
      ESP Fit Center   67 is at  -7.871289  0.122305  1.617870
      ESP Fit Center   68 is at  -7.871289  0.422305 -0.182130
      ESP Fit Center   69 is at  -7.871289  0.422305  0.117870
      ESP Fit Center   70 is at  -7.871289  0.422305  0.417870
      ESP Fit Center   71 is at  -7.871289  0.422305  0.717870
      ESP Fit Center   72 is at  -7.871289  0.422305  1.017870
      ESP Fit Center   73 is at  -7.871289  0.422305  1.317870
      ESP Fit Center   74 is at  -7.871289  0.422305  1.617870
      ESP Fit Center   75 is at  -7.871289  0.722305  0.117870
      ESP Fit Center   76 is at  -7.871289  0.722305  0.417870
      ESP Fit Center   77 is at  -7.871289  0.722305  0.717870
      ESP Fit Center   78 is at  -7.871289  0.722305  1.017870
      ESP Fit Center   79 is at  -7.871289  0.722305  1.317870
      ESP Fit Center   80 is at  -7.571289 -1.677695  0.117870
      ESP Fit Center   81 is at  -7.571289 -1.677695  0.417870
      ESP Fit Center   82 is at  -7.571289 -1.677695  0.717870
      ESP Fit Center   83 is at  -7.571289 -1.677695  1.017870
      ESP Fit Center   84 is at  -7.571289 -1.677695  1.317870
      ESP Fit Center   85 is at  -7.571289 -1.377695 -0.182130
      ESP Fit Center   86 is at  -7.571289 -1.377695  0.117870
      ESP Fit Center   87 is at  -7.571289 -1.377695  0.417870
      ESP Fit Center   88 is at  -7.571289 -1.377695  0.717870
      ESP Fit Center   89 is at  -7.571289 -1.377695  1.017870
      ESP Fit Center   90 is at  -7.571289 -1.377695  1.317870
      ESP Fit Center   91 is at  -7.571289 -1.377695  1.617870
      ESP Fit Center   92 is at  -7.571289 -1.377695  1.917870
      ESP Fit Center   93 is at  -7.571289 -1.077695 -0.482130
      ESP Fit Center   94 is at  -7.571289 -1.077695 -0.182130
      ESP Fit Center   95 is at  -7.571289 -1.077695  0.117870
      ESP Fit Center   96 is at  -7.571289 -1.077695  0.417870
      ESP Fit Center   97 is at  -7.571289 -1.077695  0.717870
      ESP Fit Center   98 is at  -7.571289 -1.077695  1.017870
      ESP Fit Center   99 is at  -7.571289 -1.077695  1.317870
      ESP Fit Center  100 is at  -7.571289 -1.077695  1.617870
      ESP Fit Center  101 is at  -7.571289 -1.077695  1.917870
      ESP Fit Center  102 is at  -7.571289 -0.777695 -0.782130
      ESP Fit Center  103 is at  -7.571289 -0.777695 -0.482130
      ESP Fit Center  104 is at  -7.571289 -0.777695 -0.182130
      ESP Fit Center  105 is at  -7.571289 -0.777695  0.117870
      ESP Fit Center  106 is at  -7.571289 -0.777695  0.417870
      ESP Fit Center  107 is at  -7.571289 -0.777695  0.717870
      ESP Fit Center  108 is at  -7.571289 -0.777695  1.017870
      ESP Fit Center  109 is at  -7.571289 -0.777695  1.317870
      ESP Fit Center  110 is at  -7.571289 -0.777695  1.617870
      ESP Fit Center  111 is at  -7.571289 -0.777695  1.917870
      ESP Fit Center  112 is at  -7.571289 -0.777695  2.217870
      ESP Fit Center  113 is at  -7.571289 -0.477695 -0.782130
      ESP Fit Center  114 is at  -7.571289 -0.477695 -0.482130
      ESP Fit Center  115 is at  -7.571289 -0.477695 -0.182130
      ESP Fit Center  116 is at  -7.571289 -0.477695  0.117870
      ESP Fit Center  117 is at  -7.571289 -0.477695  0.417870
      ESP Fit Center  118 is at  -7.571289 -0.477695  0.717870
      ESP Fit Center  119 is at  -7.571289 -0.477695  1.017870
      ESP Fit Center  120 is at  -7.571289 -0.477695  1.317870
      ESP Fit Center  121 is at  -7.571289 -0.477695  1.617870
      ESP Fit Center  122 is at  -7.571289 -0.477695  1.917870
      ESP Fit Center  123 is at  -7.571289 -0.477695  2.217870
      ESP Fit Center  124 is at  -7.571289 -0.177695 -0.782130
      ESP Fit Center  125 is at  -7.571289 -0.177695 -0.482130
      ESP Fit Center  126 is at  -7.571289 -0.177695 -0.182130
      ESP Fit Center  127 is at  -7.571289 -0.177695  0.117870
      ESP Fit Center  128 is at  -7.571289 -0.177695  0.417870
      ESP Fit Center  129 is at  -7.571289 -0.177695  0.717870
      ESP Fit Center  130 is at  -7.571289 -0.177695  1.017870
      ESP Fit Center  131 is at  -7.571289 -0.177695  1.317870
      ESP Fit Center  132 is at  -7.571289 -0.177695  1.617870
      ESP Fit Center  133 is at  -7.571289 -0.177695  1.917870
      ESP Fit Center  134 is at  -7.571289 -0.177695  2.217870
      ESP Fit Center  135 is at  -7.571289  0.122305 -0.782130
      ESP Fit Center  136 is at  -7.571289  0.122305 -0.482130
      ESP Fit Center  137 is at  -7.571289  0.122305 -0.182130
      ESP Fit Center  138 is at  -7.571289  0.122305  0.117870
      ESP Fit Center  139 is at  -7.571289  0.122305  0.417870
      ESP Fit Center  140 is at  -7.571289  0.122305  0.717870
      ESP Fit Center  141 is at  -7.571289  0.122305  1.017870
      ESP Fit Center  142 is at  -7.571289  0.122305  1.317870
      ESP Fit Center  143 is at  -7.571289  0.122305  1.617870
      ESP Fit Center  144 is at  -7.571289  0.122305  1.917870
      ESP Fit Center  145 is at  -7.571289  0.122305  2.217870
      ESP Fit Center  146 is at  -7.571289  0.422305 -0.782130
      ESP Fit Center  147 is at  -7.571289  0.422305 -0.482130
      ESP Fit Center  148 is at  -7.571289  0.422305 -0.182130
      ESP Fit Center  149 is at  -7.571289  0.422305  0.117870
      ESP Fit Center  150 is at  -7.571289  0.422305  0.417870
      ESP Fit Center  151 is at  -7.571289  0.422305  0.717870
      ESP Fit Center  152 is at  -7.571289  0.422305  1.017870
      ESP Fit Center  153 is at  -7.571289  0.422305  1.317870
      ESP Fit Center  154 is at  -7.571289  0.422305  1.617870
      ESP Fit Center  155 is at  -7.571289  0.422305  1.917870
      ESP Fit Center  156 is at  -7.571289  0.422305  2.217870
      ESP Fit Center  157 is at  -7.571289  0.722305 -0.482130
      ESP Fit Center  158 is at  -7.571289  0.722305 -0.182130
      ESP Fit Center  159 is at  -7.571289  0.722305  0.117870
      ESP Fit Center  160 is at  -7.571289  0.722305  0.417870
      ESP Fit Center  161 is at  -7.571289  0.722305  0.717870
      ESP Fit Center  162 is at  -7.571289  0.722305  1.017870
      ESP Fit Center  163 is at  -7.571289  0.722305  1.317870
      ESP Fit Center  164 is at  -7.571289  0.722305  1.617870
      ESP Fit Center  165 is at  -7.571289  0.722305  1.917870
      ESP Fit Center  166 is at  -7.571289  1.022305 -0.182130
      ESP Fit Center  167 is at  -7.571289  1.022305  0.117870
      ESP Fit Center  168 is at  -7.571289  1.022305  0.417870
      ESP Fit Center  169 is at  -7.571289  1.022305  0.717870
      ESP Fit Center  170 is at  -7.571289  1.022305  1.017870
      ESP Fit Center  171 is at  -7.571289  1.022305  1.317870
      ESP Fit Center  172 is at  -7.571289  1.022305  1.617870
      ESP Fit Center  173 is at  -7.571289  1.322305  0.117870
      ESP Fit Center  174 is at  -7.571289  1.322305  0.417870
      ESP Fit Center  175 is at  -7.571289  1.322305  0.717870
      ESP Fit Center  176 is at  -7.571289  1.322305  1.017870
      ESP Fit Center  177 is at  -7.571289  1.322305  1.317870
      ESP Fit Center  178 is at  -7.571289  1.322305  1.617870
      ESP Fit Center  179 is at  -7.571289  1.322305  1.917870
      ESP Fit Center  180 is at  -7.571289  1.622305  0.417870
      ESP Fit Center  181 is at  -7.571289  1.622305  0.717870
      ESP Fit Center  182 is at  -7.571289  1.622305  1.017870
      ESP Fit Center  183 is at  -7.571289  1.622305  1.317870
      ESP Fit Center  184 is at  -7.571289  1.622305  1.617870
      ESP Fit Center  185 is at  -7.571289  1.622305  1.917870
      ESP Fit Center  186 is at  -7.571289  1.922305  0.417870
      ESP Fit Center  187 is at  -7.571289  1.922305  0.717870
      ESP Fit Center  188 is at  -7.571289  1.922305  1.017870
      ESP Fit Center  189 is at  -7.571289  1.922305  1.317870
      ESP Fit Center  190 is at  -7.571289  1.922305  1.617870
      ESP Fit Center  191 is at  -7.571289  2.222305  0.717870
      ESP Fit Center  192 is at  -7.571289  2.222305  1.017870
      ESP Fit Center  193 is at  -7.571289  2.222305  1.317870
      ESP Fit Center  194 is at  -7.271289 -1.977695 -0.182130
      ESP Fit Center  195 is at  -7.271289 -1.977695  0.117870
      ESP Fit Center  196 is at  -7.271289 -1.977695  0.417870
      ESP Fit Center  197 is at  -7.271289 -1.977695  0.717870
      ESP Fit Center  198 is at  -7.271289 -1.977695  1.017870
      ESP Fit Center  199 is at  -7.271289 -1.977695  1.317870
      ESP Fit Center  200 is at  -7.271289 -1.977695  1.617870
      ESP Fit Center  201 is at  -7.271289 -1.677695 -0.482130
      ESP Fit Center  202 is at  -7.271289 -1.677695 -0.182130
      ESP Fit Center  203 is at  -7.271289 -1.677695  0.117870
      ESP Fit Center  204 is at  -7.271289 -1.677695  0.417870
      ESP Fit Center  205 is at  -7.271289 -1.677695  0.717870
      ESP Fit Center  206 is at  -7.271289 -1.677695  1.017870
      ESP Fit Center  207 is at  -7.271289 -1.677695  1.317870
      ESP Fit Center  208 is at  -7.271289 -1.677695  1.617870
      ESP Fit Center  209 is at  -7.271289 -1.677695  1.917870
      ESP Fit Center  210 is at  -7.271289 -1.377695 -0.782130
      ESP Fit Center  211 is at  -7.271289 -1.377695 -0.482130
      ESP Fit Center  212 is at  -7.271289 -1.377695 -0.182130
      ESP Fit Center  213 is at  -7.271289 -1.377695  0.117870
      ESP Fit Center  214 is at  -7.271289 -1.377695  0.417870
      ESP Fit Center  215 is at  -7.271289 -1.377695  0.717870
      ESP Fit Center  216 is at  -7.271289 -1.377695  1.017870
      ESP Fit Center  217 is at  -7.271289 -1.377695  1.317870
      ESP Fit Center  218 is at  -7.271289 -1.377695  1.617870
      ESP Fit Center  219 is at  -7.271289 -1.377695  1.917870
      ESP Fit Center  220 is at  -7.271289 -1.377695  2.217870
      ESP Fit Center  221 is at  -7.271289 -1.077695 -1.082130
      ESP Fit Center  222 is at  -7.271289 -1.077695 -0.782130
      ESP Fit Center  223 is at  -7.271289 -1.077695 -0.482130
      ESP Fit Center  224 is at  -7.271289 -1.077695 -0.182130
      ESP Fit Center  225 is at  -7.271289 -1.077695  0.117870
      ESP Fit Center  226 is at  -7.271289 -1.077695  0.417870
      ESP Fit Center  227 is at  -7.271289 -1.077695  0.717870
      ESP Fit Center  228 is at  -7.271289 -1.077695  1.017870
      ESP Fit Center  229 is at  -7.271289 -1.077695  1.317870
      ESP Fit Center  230 is at  -7.271289 -1.077695  1.617870
      ESP Fit Center  231 is at  -7.271289 -1.077695  1.917870
      ESP Fit Center  232 is at  -7.271289 -1.077695  2.217870
      ESP Fit Center  233 is at  -7.271289 -1.077695  2.517870
      ESP Fit Center  234 is at  -7.271289 -0.777695 -1.082130
      ESP Fit Center  235 is at  -7.271289 -0.777695 -0.782130
      ESP Fit Center  236 is at  -7.271289 -0.777695 -0.482130
      ESP Fit Center  237 is at  -7.271289 -0.777695 -0.182130
      ESP Fit Center  238 is at  -7.271289 -0.777695  0.117870
      ESP Fit Center  239 is at  -7.271289 -0.777695  0.417870
      ESP Fit Center  240 is at  -7.271289 -0.777695  0.717870
      ESP Fit Center  241 is at  -7.271289 -0.777695  1.017870
      ESP Fit Center  242 is at  -7.271289 -0.777695  1.317870
      ESP Fit Center  243 is at  -7.271289 -0.777695  1.617870
      ESP Fit Center  244 is at  -7.271289 -0.777695  1.917870
      ESP Fit Center  245 is at  -7.271289 -0.777695  2.217870
      ESP Fit Center  246 is at  -7.271289 -0.777695  2.517870
      ESP Fit Center  247 is at  -7.271289 -0.477695 -1.082130
      ESP Fit Center  248 is at  -7.271289 -0.477695 -0.782130
      ESP Fit Center  249 is at  -7.271289 -0.477695 -0.482130
      ESP Fit Center  250 is at  -7.271289 -0.477695 -0.182130
      ESP Fit Center  251 is at  -7.271289 -0.477695  0.117870
      ESP Fit Center  252 is at  -7.271289 -0.477695  0.417870
      ESP Fit Center  253 is at  -7.271289 -0.477695  0.717870
      ESP Fit Center  254 is at  -7.271289 -0.477695  1.017870
      ESP Fit Center  255 is at  -7.271289 -0.477695  1.317870
      ESP Fit Center  256 is at  -7.271289 -0.477695  1.617870
      ESP Fit Center  257 is at  -7.271289 -0.477695  1.917870
      ESP Fit Center  258 is at  -7.271289 -0.477695  2.217870
      ESP Fit Center  259 is at  -7.271289 -0.477695  2.517870
      ESP Fit Center  260 is at  -7.271289 -0.177695 -1.082130
      ESP Fit Center  261 is at  -7.271289 -0.177695 -0.782130
      ESP Fit Center  262 is at  -7.271289 -0.177695 -0.482130
      ESP Fit Center  263 is at  -7.271289 -0.177695 -0.182130
      ESP Fit Center  264 is at  -7.271289 -0.177695  0.117870
      ESP Fit Center  265 is at  -7.271289 -0.177695  0.417870
      ESP Fit Center  266 is at  -7.271289 -0.177695  0.717870
      ESP Fit Center  267 is at  -7.271289 -0.177695  1.017870
      ESP Fit Center  268 is at  -7.271289 -0.177695  1.317870
      ESP Fit Center  269 is at  -7.271289 -0.177695  1.617870
      ESP Fit Center  270 is at  -7.271289 -0.177695  1.917870
      ESP Fit Center  271 is at  -7.271289 -0.177695  2.217870
      ESP Fit Center  272 is at  -7.271289 -0.177695  2.517870
      ESP Fit Center  273 is at  -7.271289  0.122305 -1.082130
      ESP Fit Center  274 is at  -7.271289  0.122305 -0.782130
      ESP Fit Center  275 is at  -7.271289  0.122305 -0.482130
      ESP Fit Center  276 is at  -7.271289  0.122305 -0.182130
      ESP Fit Center  277 is at  -7.271289  0.122305  0.117870
      ESP Fit Center  278 is at  -7.271289  0.122305  0.417870
      ESP Fit Center  279 is at  -7.271289  0.122305  0.717870
      ESP Fit Center  280 is at  -7.271289  0.122305  1.017870
      ESP Fit Center  281 is at  -7.271289  0.122305  1.317870
      ESP Fit Center  282 is at  -7.271289  0.122305  1.617870
      ESP Fit Center  283 is at  -7.271289  0.122305  1.917870
      ESP Fit Center  284 is at  -7.271289  0.122305  2.217870
      ESP Fit Center  285 is at  -7.271289  0.122305  2.517870
      ESP Fit Center  286 is at  -7.271289  0.422305 -1.082130
      ESP Fit Center  287 is at  -7.271289  0.422305 -0.782130
      ESP Fit Center  288 is at  -7.271289  0.422305 -0.482130
      ESP Fit Center  289 is at  -7.271289  0.422305 -0.182130
      ESP Fit Center  290 is at  -7.271289  0.422305  0.117870
      ESP Fit Center  291 is at  -7.271289  0.422305  0.417870
      ESP Fit Center  292 is at  -7.271289  0.422305  0.717870
[...]
 **** Fit       0.036353
 **** Fit       0.036685
 **** Fit       0.036382
 **** Fit       0.036766
 **** Fit       0.038461
 **** Fit       0.039536
 **** Fit       0.039889
 **** Fit       0.039499
 **** Fit       0.038437
 **** Fit       0.036941
 **** Fit       0.039338
 **** Fit       0.041226
 **** Fit       0.042419
 **** Fit       0.042790
 **** Fit       0.042317
 **** Fit       0.041086
 **** Fit       0.039258
 **** Fit       0.038857
 **** Fit       0.041437
 **** Fit       0.043477
 **** Fit       0.044763
 **** Fit       0.045151
 **** Fit       0.044614
 **** Fit       0.043250
 **** Fit       0.041243
 **** Fit       0.038810
 **** Fit       0.037202
 **** Fit       0.040205
 **** Fit       0.042884
 **** Fit       0.045010
 **** Fit       0.046355
 **** Fit       0.046762
 **** Fit       0.046197
 **** Fit       0.044762
 **** Fit       0.042653
 **** Fit       0.040096
 **** Fit       0.037886
 **** Fit       0.040882
 **** Fit       0.043560
 **** Fit       0.045697
 **** Fit       0.047066
 **** Fit       0.047503
 **** Fit       0.046963
 **** Fit       0.045537
 **** Fit       0.043416
 **** Fit       0.040826
 **** Fit       0.028876
 **** Fit       0.031892
 **** Fit       0.034949
 **** Fit       0.037970
 **** Fit       0.040848
 **** Fit       0.043430
 **** Fit       0.045516
 **** Fit       0.046889
 **** Fit       0.047382
 **** Fit       0.046930
 **** Fit       0.045595
 **** Fit       0.043547
 **** Fit       0.041002
 **** Fit       0.026009
 **** Fit       0.028860
 **** Fit       0.031760
 **** Fit       0.034647
 **** Fit       0.037461
 **** Fit       0.040129
 **** Fit       0.042544
 **** Fit       0.044546
 **** Fit       0.045938
 **** Fit       0.046537
 **** Fit       0.046237
 **** Fit       0.045058
 **** Fit       0.043137
 **** Fit       0.040683
 **** Fit       0.037918
 **** Fit       0.035026
 **** Fit       0.023079
 **** Fit       0.025748
 **** Fit       0.028484
 **** Fit       0.031210
 **** Fit       0.033862
 **** Fit       0.036399
 **** Fit       0.038797
 **** Fit       0.041013
 **** Fit       0.042942
 **** Fit       0.044405
 **** Fit       0.045184
 **** Fit       0.045099
 **** Fit       0.044104
 **** Fit       0.042314
 **** Fit       0.039950
 **** Fit       0.037253
 **** Fit       0.034424
 **** Fit       0.022593
 **** Fit       0.025148
 **** Fit       0.027725
 **** Fit       0.030235
 **** Fit       0.032611
 **** Fit       0.034837
 **** Fit       0.036945
 **** Fit       0.038971
 **** Fit       0.040879
 **** Fit       0.042500
 **** Fit       0.043544
 **** Fit       0.043715
 **** Fit       0.042888
 **** Fit       0.041179
 **** Fit       0.038857
 **** Fit       0.036207
 **** Fit       0.033448
 **** Fit       0.030721
 **** Fit       0.021784
 **** Fit       0.024175
 **** Fit       0.026551
 **** Fit       0.028814
 **** Fit       0.030898
 **** Fit       0.032813
 **** Fit       0.034650
 **** Fit       0.036526
 **** Fit       0.038475
 **** Fit       0.040331
 **** Fit       0.041699
 **** Fit       0.042129
 **** Fit       0.041413
 **** Fit       0.039711
 **** Fit       0.037381
 **** Fit       0.034764
 **** Fit       0.032090
 **** Fit       0.029487
 **** Fit       0.018511
 **** Fit       0.020637
 **** Fit       0.022810
 **** Fit       0.024937
 **** Fit       0.026923
 **** Fit       0.028711
 **** Fit       0.030335
 **** Fit       0.031933
 **** Fit       0.033687
 **** Fit       0.035690
 **** Fit       0.037773
 **** Fit       0.039434
 **** Fit       0.040074
 **** Fit       0.039425
 **** Fit       0.037712
 **** Fit       0.035392
 **** Fit       0.032853
 **** Fit       0.030323
 **** Fit       0.027904
 **** Fit       0.019163
 **** Fit       0.021059
 **** Fit       0.022885
 **** Fit       0.024558
 **** Fit       0.026040
 **** Fit       0.027385
 **** Fit       0.028753
 **** Fit       0.030357
 **** Fit       0.032319
 **** Fit       0.034470
 **** Fit       0.036264
 **** Fit       0.037031
 **** Fit       0.036481
 **** Fit       0.034876
 **** Fit       0.032714
 **** Fit       0.030395
 **** Fit       0.028125
 **** Fit       0.025982
 **** Fit       0.023982
 **** Fit       0.017406
 **** Fit       0.018970
 **** Fit       0.020444
 **** Fit       0.021763
 **** Fit       0.022910
 **** Fit       0.023951
 **** Fit       0.025048
 **** Fit       0.026405
 **** Fit       0.028139
 **** Fit       0.030103
 **** Fit       0.031800
 **** Fit       0.032617
 **** Fit       0.032283
 **** Fit       0.031019
 **** Fit       0.029265
 **** Fit       0.027372
 **** Fit       0.025516
 **** Fit       0.023758
 **** Fit       0.015441
 **** Fit       0.016634
 **** Fit       0.017712
 **** Fit       0.018633
 **** Fit       0.019396
 **** Fit       0.020077
 **** Fit       0.020821
 **** Fit       0.021805
 **** Fit       0.023132
 **** Fit       0.024699
 **** Fit       0.026135
 **** Fit       0.026975
 **** Fit       0.026985
 **** Fit       0.026285
 **** Fit       0.025172
 **** Fit       0.023897
 **** Fit       0.022595
 **** Fit       0.021317
 **** Fit       0.014170
 **** Fit       0.014827
 **** Fit       0.015315
 **** Fit       0.015647
 **** Fit       0.015900
 **** Fit       0.016208
 **** Fit       0.016726
 **** Fit       0.017556
 **** Fit       0.018661
 **** Fit       0.019814
 **** Fit       0.020707
 **** Fit       0.021139
 **** Fit       0.021113
 **** Fit       0.020757
 **** Fit       0.020203
 **** Fit       0.019533
 **** Fit       0.018788
 **** Fit       0.011951
 **** Fit       0.011997
 **** Fit       0.011875
 **** Fit       0.011664
 **** Fit       0.011496
 **** Fit       0.011524
 **** Fit       0.011876
 **** Fit       0.012579
 **** Fit       0.013530
 **** Fit       0.014533
 **** Fit       0.015404
 **** Fit       0.016042
 **** Fit       0.016430
 **** Fit       0.016588
 **** Fit       0.016545
 **** Fit       0.007689
 **** Fit       0.007077
 **** Fit       0.006676
 **** Fit       0.006643
 **** Fit       0.007068
 **** Fit       0.007927
 **** Fit       0.009084
 **** Fit       0.010352
 **** Fit       0.011556
 **** Fit       0.012575
 **** Fit       0.013342
 **** Fit       0.013840
 **** Fit       0.003366
 **** Fit       0.002664
 **** Fit       0.002390
 **** Fit       0.002671
 **** Fit       0.003521
 **** Fit       0.004832
 **** Fit       0.006404
 **** Fit       0.008016
 **** Fit       0.009484
 **** Fit       0.010692
 **** Fit       0.000683
 **** Fit      -0.000147
 **** Fit      -0.000503
 **** Fit      -0.000248
 **** Fit       0.000639
 **** Fit       0.002054
 **** Fit       0.003791
 **** Fit       0.005615
 **** Fit      -0.000836
 **** Fit      -0.001617
 **** Fit      -0.001909
 **** Fit      -0.001594
 **** Fit      -0.000663
 **** Fit       0.000776
 **** Fit       0.002526
 **** Fit      -0.001859
 **** Fit      -0.001986
 **** Fit      -0.001562
 **** Fit      -0.000603
 **** Fit       0.000780
 **** Fit       0.002412
 **** Fit       0.004101
 **** Fit      -0.001089
 **** Fit      -0.000544
 **** Fit       0.000419
 **** Fit       0.001690
 **** Fit       0.003121
 **** Fit       0.004561
 **** Fit       0.005892
 **** Fit       0.000064
 **** Fit       0.000362
 **** Fit       0.001015
 **** Fit       0.001963
 **** Fit       0.003097
 **** Fit       0.004295
 **** Fit       0.005447
 **** Fit       0.006479
 **** Fit       0.007347
 **** Fit       0.001514
 **** Fit       0.001992
 **** Fit       0.002729
 **** Fit       0.003649
 **** Fit       0.004645
 **** Fit       0.005617
 **** Fit       0.006491
 **** Fit       0.007228
 **** Fit       0.007819
 **** Fit       0.002921
 **** Fit       0.003532
 **** Fit       0.004320
 **** Fit       0.005201
 **** Fit       0.006071
 **** Fit       0.006846
 **** Fit       0.007479
 **** Fit       0.007960
 **** Fit       0.008305
 **** Fit       0.004124
 **** Fit       0.004816
 **** Fit       0.005619
 **** Fit       0.006447
 **** Fit       0.007205
 **** Fit       0.007820
 **** Fit       0.008263
 **** Fit       0.008545
 **** Fit       0.008698
 **** Fit       0.005049
 **** Fit       0.005768
 **** Fit       0.006550
 **** Fit       0.007312
 **** Fit       0.007969
 **** Fit       0.008460
 **** Fit       0.008767
 **** Fit       0.008910
 **** Fit       0.008930
 **** Fit       0.006383
 **** Fit       0.007114
 **** Fit       0.007797
 **** Fit       0.008362
 **** Fit       0.008759
 **** Fit       0.008977
 **** Fit       0.009037
 **** Fit       0.008980
 **** Fit       0.006700
 **** Fit       0.007360
 **** Fit       0.007960
 **** Fit       0.008442
 **** Fit       0.008769
 **** Fit       0.008931
 **** Fit       0.008949
 **** Fit       0.007879
 **** Fit       0.008289
 **** Fit       0.008562
 **** Fit       0.037692
 **** Fit       0.038650
 **** Fit       0.038970
 **** Fit       0.038635
 **** Fit       0.038854
 **** Fit       0.039852
 **** Fit       0.040188
 **** Fit       0.039840
 **** Fit       0.038860
 **** Fit       0.039408
 **** Fit       0.040428
 **** Fit       0.040789
 **** Fit       0.040459
 **** Fit       0.039484
 **** Fit       0.039332
 **** Fit       0.040365
 **** Fit       0.040765
 **** Fit       0.040488
 **** Fit       0.039565
 **** Fit       0.038090
 **** Fit       0.028522
 **** Fit       0.030877
 **** Fit       0.033144
 **** Fit       0.035259
 **** Fit       0.037133
 **** Fit       0.038658
 **** Fit       0.039708
 **** Fit       0.040172
 **** Fit       0.039985
 **** Fit       0.039153
 **** Fit       0.037757
 **** Fit       0.035925
 **** Fit       0.025714
 **** Fit       0.027968
 **** Fit       0.030164
 **** Fit       0.032260
 **** Fit       0.034215
 **** Fit       0.035976
 **** Fit       0.037459
 **** Fit       0.038545
 **** Fit       0.039105
 **** Fit       0.039040
 **** Fit       0.038325
 **** Fit       0.037023
 **** Fit       0.035266
 **** Fit       0.033209
 **** Fit       0.022831
 **** Fit       0.024959
 **** Fit       0.027047
 **** Fit       0.029050
 **** Fit       0.030944
 **** Fit       0.032721
 **** Fit       0.034364
 **** Fit       0.035817
 **** Fit       0.036965
 **** Fit       0.037651
 **** Fit       0.037729
 **** Fit       0.037136
 **** Fit       0.035928
 **** Fit       0.034245
 **** Fit       0.032260
 **** Fit       0.030124
 **** Fit       0.021908
 **** Fit       0.023865
 **** Fit       0.025756
 **** Fit       0.027544
 **** Fit       0.029224
 **** Fit       0.030818
 **** Fit       0.032347
 **** Fit       0.033782
 **** Fit       0.035010
 **** Fit       0.035834
 **** Fit       0.036057
 **** Fit       0.035579
 **** Fit       0.034455
 **** Fit       0.032849
 **** Fit       0.030951
 **** Fit       0.028919
 **** Fit       0.020679
 **** Fit       0.022429
 **** Fit       0.024097
 **** Fit       0.025655
 **** Fit       0.027116
 **** Fit       0.028527
 **** Fit       0.029938
 **** Fit       0.031346
 **** Fit       0.032633
 **** Fit       0.033575
 **** Fit       0.033923
 **** Fit       0.033553
 **** Fit       0.032525
 **** Fit       0.031024
 **** Fit       0.029254
 **** Fit       0.027375
 **** Fit       0.025489
 **** Fit       0.019160
 **** Fit       0.020669
 **** Fit       0.022087
 **** Fit       0.023398
 **** Fit       0.024629
 **** Fit       0.025844
 **** Fit       0.027112
 **** Fit       0.028443
 **** Fit       0.029725
 **** Fit       0.030719
 **** Fit       0.031161
 **** Fit       0.030912
 **** Fit       0.030033
 **** Fit       0.028712
 **** Fit       0.027149
 **** Fit       0.025495
 **** Fit       0.023837
 **** Fit       0.017393
 **** Fit       0.018629
 **** Fit       0.019768
 **** Fit       0.020809
 **** Fit       0.021787
 **** Fit       0.022774
 **** Fit       0.023846
 **** Fit       0.025020
 **** Fit       0.026200
 **** Fit       0.027168
 **** Fit       0.027674
 **** Fit       0.027584
 **** Fit       0.026941
 **** Fit       0.025908
 **** Fit       0.024655
 **** Fit       0.023311
 **** Fit       0.021949
 **** Fit       0.016381
 **** Fit       0.017215
 **** Fit       0.017957
 **** Fit       0.018648
 **** Fit       0.019363
 **** Fit       0.020177
 **** Fit       0.021118
 **** Fit       0.022114
 **** Fit       0.022995
 **** Fit       0.023555
 **** Fit       0.023671
 **** Fit       0.023354
 **** Fit       0.022710
 **** Fit       0.021862
 **** Fit       0.020905
 **** Fit       0.014537
 **** Fit       0.014956
 **** Fit       0.015330
 **** Fit       0.015736
 **** Fit       0.016250
 **** Fit       0.016913
 **** Fit       0.017691
 **** Fit       0.018469
 **** Fit       0.019094
 **** Fit       0.019452
 **** Fit       0.019514
 **** Fit       0.019318
 **** Fit       0.018928
 **** Fit       0.018402
 **** Fit       0.012012
 **** Fit       0.012097
 **** Fit       0.012304
 **** Fit       0.012694
 **** Fit       0.013271
 **** Fit       0.013970
 **** Fit       0.014680
 **** Fit       0.015291
 **** Fit       0.015735
 **** Fit       0.015988
 **** Fit       0.016054
 **** Fit       0.008703
 **** Fit       0.008641
 **** Fit       0.008805
 **** Fit       0.009230
 **** Fit       0.009889
 **** Fit       0.010697
 **** Fit       0.011544
 **** Fit       0.012326
 **** Fit       0.012971
 **** Fit       0.013437
 **** Fit       0.005568
 **** Fit       0.005904
 **** Fit       0.006559
 **** Fit       0.007459
 **** Fit       0.008491
 **** Fit       0.009530
 **** Fit       0.004252
 **** Fit       0.005144
 **** Fit       0.003655
 **** Fit       0.004338
 **** Fit       0.005091
 **** Fit       0.005848
 **** Fit       0.006553
 **** Fit       0.004610
 **** Fit       0.005265
 **** Fit       0.005936
 **** Fit       0.006565
 **** Fit       0.007115
 **** Fit       0.005442
 **** Fit       0.006061
 **** Fit       0.006654
 **** Fit       0.007173
 **** Fit       0.007591
 **** Fit       0.006651
 **** Fit       0.007171
 **** Fit       0.007599
 **** Fit       0.007915
 **** Fit       0.034605
 **** Fit       0.034970
 **** Fit       0.034851
 **** Fit       0.034251
 **** Fit       0.031705
 **** Fit       0.032861
 **** Fit       0.033686
 **** Fit       0.034104
 **** Fit       0.034056
 **** Fit       0.033532
 **** Fit       0.032569
 **** Fit       0.031249
 **** Fit       0.029077
 **** Fit       0.030404
 **** Fit       0.031531
 **** Fit       0.032380
 **** Fit       0.032860
 **** Fit       0.032897
 **** Fit       0.032458
 **** Fit       0.031575
 **** Fit       0.030329
 **** Fit       0.028825
 **** Fit       0.024717
 **** Fit       0.026154
 **** Fit       0.027500
 **** Fit       0.028740
 **** Fit       0.029834
 **** Fit       0.030706
 **** Fit       0.031252
 **** Fit       0.031375
 **** Fit       0.031027
 **** Fit       0.030233
 **** Fit       0.029077
 **** Fit       0.027667
 **** Fit       0.023109
 **** Fit       0.024380
 **** Fit       0.025586
 **** Fit       0.026727
 **** Fit       0.027776
 **** Fit       0.028657
 **** Fit       0.029256
 **** Fit       0.029459
 **** Fit       0.029206
 **** Fit       0.028517
 **** Fit       0.027476
 **** Fit       0.026194
 **** Fit       0.021214
 **** Fit       0.022303
 **** Fit       0.023352
 **** Fit       0.024374
 **** Fit       0.025350
 **** Fit       0.026209
 **** Fit       0.026835
 **** Fit       0.027107
 **** Fit       0.026958
 **** Fit       0.026402
 **** Fit       0.025519
 **** Fit       0.024412
 **** Fit       0.023177
 **** Fit       0.019959
 **** Fit       0.020828
 **** Fit       0.021700
 **** Fit       0.022565
 **** Fit       0.023362
 **** Fit       0.023984
 **** Fit       0.024316
 **** Fit       0.024288
 **** Fit       0.023905
 **** Fit       0.023231
 **** Fit       0.022353
 **** Fit       0.018074
 **** Fit       0.018766
 **** Fit       0.019484
 **** Fit       0.020184
 **** Fit       0.020778
 **** Fit       0.021165
 **** Fit       0.021278
 **** Fit       0.021107
 **** Fit       0.020691
 **** Fit       0.020091
 **** Fit       0.015195
 **** Fit       0.015686
 **** Fit       0.016238
 **** Fit       0.016824
 **** Fit       0.017381
 **** Fit       0.017827
 **** Fit       0.018097
 **** Fit       0.018163
 **** Fit       0.018034
 **** Fit       0.017739
 **** Fit       0.012629
 **** Fit       0.013017
 **** Fit       0.013494
 **** Fit       0.014021
 **** Fit       0.014532
 **** Fit       0.014963
 **** Fit       0.015267
 **** Fit       0.015424
 **** Fit       0.010038
 **** Fit       0.010429
 **** Fit       0.010940
 **** Fit       0.011519
 **** Fit       0.012099
 **** Fit       0.012617
 **** Fit       0.027904
 **** Fit       0.028554
 **** Fit       0.028911
 **** Fit       0.028933
 **** Fit       0.028605
 **** Fit       0.026495
 **** Fit       0.027147
 **** Fit       0.027538
 **** Fit       0.027615
 **** Fit       0.027356
 **** Fit       0.026774
 **** Fit       0.023968
 **** Fit       0.024781
 **** Fit       0.025427
 **** Fit       0.025845
 **** Fit       0.025977
 **** Fit       0.025792
 **** Fit       0.025300
 **** Fit       0.024544
 **** Fit       0.022026
 **** Fit       0.022779
 **** Fit       0.023403
 **** Fit       0.023837
 **** Fit       0.024020
 **** Fit       0.023918
 **** Fit       0.023533
 **** Fit       0.022904
 **** Fit       0.019847
 **** Fit       0.020520
 **** Fit       0.021103
 **** Fit       0.021541
 **** Fit       0.021772
 **** Fit       0.021761
 **** Fit       0.021505
 **** Fit       0.021031
 **** Fit       0.018066
 **** Fit       0.018593
 **** Fit       0.019023
 **** Fit       0.019303
 **** Fit       0.019393
 **** Fit       0.019284
 **** Fit       0.015518
 **** Fit       0.015980
 **** Fit       0.016399
 **** Fit       0.016727
 **** Fit       0.016925
 **** Fit       0.016974
 -----------------------------------------------------------------
 Leave Link  602 at Thu May 19 00:28:06 2016, MaxMem=  1073741824 cpu:         9.7

 Test job not archived.
 1\1\GINC-E09\SP\RHF\6-31G(d)\C9H18N2O4\WISE\19-May-2016\0\\# HF/6-31G*
  scf=tight iop(6/33=2) pop=chelpg\\Title Card Required\\0,1\C\H,1,1.08
 437844\H,1,1.08347083,2,108.79363933\H,1,1.08240927,3,109.50443737,2,1
 17.49703363,0\C,1,1.51514517,4,108.72808605,2,117.36372185,0\O,5,1.204
 72968,1,121.13254813,4,-47.62378517,0\N,5,1.34490023,1,115.82596095,6,
 -179.02658939,0\H,7,0.99503432,5,120.99127491,1,-3.7968216,0\C,7,1.446
 10332,5,123.21178781,1,177.68430651,0\H,9,1.07870251,7,109.14421947,5,
 -40.71944185,0\C,9,1.5534784,7,111.28247546,5,80.09057974,0\H,11,1.082
 92174,9,107.23253066,7,-79.31591038,0\H,11,1.08536233,9,107.43618277,7
 ,34.95143748,0\C,11,1.54483014,9,115.97087362,7,157.67503498,0\H,14,1.
 08235347,11,109.50167114,9,33.3205982,0\H,14,1.08412994,11,109.4068015
 2,9,149.26183796,0\C,14,1.55309904,11,114.74588723,9,-91.65232391,0\H,
 17,1.08658183,14,109.77274478,11,9.77239035,0\C,17,1.53656548,14,115.4
 1865838,11,132.02421287,0\H,19,1.08096344,17,111.42628827,14,39.893137
 22,0\H,19,1.079671,17,108.06450778,14,159.43737004,0\N,19,1.48902899,1
 7,112.89232256,14,-81.31731195,0\H,22,1.07567763,19,112.71149778,17,61
 .95635563,0\H,22,1.0055174,19,111.44353455,17,-173.69711187,0\H,22,1.0
 1102054,19,111.98898807,17,-51.2855262,0\O,17,1.40465194,14,111.672938
 29,11,-111.19877669,0\C,26,1.39784305,17,115.84126258,14,72.32076587,0
 \H,27,1.08745216,26,111.07957927,17,57.01873012,0\H,27,1.08079531,26,1
 07.01843017,17,175.97604431,0\H,27,1.08507308,26,112.08774994,17,-64.8
 4472563,0\C,9,1.52173381,7,109.47122063,5,-159.90419763,0\O,31,1.25451
 538,9,115.65204125,7,147.58513594,0\O,31,1.23147294,9,118.10441692,7,-
 40.57068183,0\\Version=AM64L-G09RevD.01\State=1-A\HF=-759.6351332\RMSD
 =3.619e-09\Dipole=1.4618457,-1.4589638,-2.4467098\Quadrupole=-5.403094
 9,10.9667681,-5.5636733,-0.9348519,2.3267363,4.3961644\PG=C01 [X(C9H18
 N2O4)]\\@


 LIFE CAN ONLY BE UNDERSTOOD BACKWARD, BUT MUST
 BE LIVED FORWARD. -- KIRKEGAARD
 Job cpu time:       0 days  0 hours  3 minutes  4.7 seconds.
 File lengths (MBytes):  RWF=     27 Int=      0 D2E=      0 Chk=      4 Scr=      1
 Normal termination of Gaussian 09 at Thu May 19 00:28:06 2016.
