 Entering Gaussian System, Link 0=/programs/g09/g09
 Input=/scratch2/Wise/temp/temp_05162016/lysine_OCH3_all_opt.com
 Output=/scratch2/Wise/temp/temp_05162016/lysine_OCH3_all_opt.log
 Initial command:
 /programs/g09/l1.exe "/tmp/Wise/lysine_OCH3_all_opt/Gau-16306.inp" -scrdir="/tmp/Wise/lysine_OCH3_all_opt/"
 Entering Link 1 = /programs/g09/l1.exe PID=     16307.
  
 Copyright (c) 1988,1990,1992,1993,1995,1998,2003,2009,2013,
            Gaussian, Inc.  All Rights Reserved.
  
 This is part of the Gaussian(R) 09 program.  It is based on
 the Gaussian(R) 03 system (copyright 2003, Gaussian, Inc.),
 the Gaussian(R) 98 system (copyright 1998, Gaussian, Inc.),
 the Gaussian(R) 94 system (copyright 1995, Gaussian, Inc.),
 the Gaussian 92(TM) system (copyright 1992, Gaussian, Inc.),
 the Gaussian 90(TM) system (copyright 1990, Gaussian, Inc.),
 the Gaussian 88(TM) system (copyright 1988, Gaussian, Inc.),
 the Gaussian 86(TM) system (copyright 1986, Carnegie Mellon
 University), and the Gaussian 82(TM) system (copyright 1983,
 Carnegie Mellon University). Gaussian is a federally registered
 trademark of Gaussian, Inc.
  
 This software contains proprietary and confidential information,
 including trade secrets, belonging to Gaussian, Inc.
  
 This software is provided under written license and may be
 used, copied, transmitted, or stored only in accord with that
 written license.
  
 The following legend is applicable only to US Government
 contracts under FAR:
  
                    RESTRICTED RIGHTS LEGEND
  
 Use, reproduction and disclosure by the US Government is
 subject to restrictions as set forth in subparagraphs (a)
 and (c) of the Commercial Computer Software - Restricted
 Rights clause in FAR 52.227-19.
  
 Gaussian, Inc.
 340 Quinnipiac St., Bldg. 40, Wallingford CT 06492
  
  
 ---------------------------------------------------------------
 Warning -- This program may not be used in any manner that
 competes with the business of Gaussian, Inc. or will provide
 assistance to any competitor of Gaussian, Inc.  The licensee
 of this program is prohibited from giving any competitor of
 Gaussian, Inc. access to this program.  By using this program,
 the user acknowledges that Gaussian, Inc. is engaged in the
 business of creating and licensing software in the field of
 computational chemistry and represents and warrants to the
 licensee that it is not a competitor of Gaussian, Inc. and that
 it will not use this program in any manner prohibited above.
 ---------------------------------------------------------------
  

 Cite this work as:
 Gaussian 09, Revision D.01,
 M. J. Frisch, G. W. Trucks, H. B. Schlegel, G. E. Scuseria, 
 M. A. Robb, J. R. Cheeseman, G. Scalmani, V. Barone, B. Mennucci, 
 G. A. Petersson, H. Nakatsuji, M. Caricato, X. Li, H. P. Hratchian, 
 A. F. Izmaylov, J. Bloino, G. Zheng, J. L. Sonnenberg, M. Hada, 
 M. Ehara, K. Toyota, R. Fukuda, J. Hasegawa, M. Ishida, T. Nakajima, 
 Y. Honda, O. Kitao, H. Nakai, T. Vreven, J. A. Montgomery, Jr., 
 J. E. Peralta, F. Ogliaro, M. Bearpark, J. J. Heyd, E. Brothers, 
 K. N. Kudin, V. N. Staroverov, T. Keith, R. Kobayashi, J. Normand, 
 K. Raghavachari, A. Rendell, J. C. Burant, S. S. Iyengar, J. Tomasi, 
 M. Cossi, N. Rega, J. M. Millam, M. Klene, J. E. Knox, J. B. Cross, 
 V. Bakken, C. Adamo, J. Jaramillo, R. Gomperts, R. E. Stratmann, 
 O. Yazyev, A. J. Austin, R. Cammi, C. Pomelli, J. W. Ochterski, 
 R. L. Martin, K. Morokuma, V. G. Zakrzewski, G. A. Voth, 
 P. Salvador, J. J. Dannenberg, S. Dapprich, A. D. Daniels, 
 O. Farkas, J. B. Foresman, J. V. Ortiz, J. Cioslowski, 
 and D. J. Fox, Gaussian, Inc., Wallingford CT, 2013.
 
 ******************************************
 Gaussian 09:  AM64L-G09RevD.01 24-Apr-2013
                15-May-2016 
 ******************************************
 %chk=lysine_OCH3_all_opt.chk
 %mem=8GB
 %nproc=8
 Will use up to    8 processors via shared memory.
 ----------------------------------
 # opt=z-matrix HF/6-31G* scf=tight
 ----------------------------------
 1/10=7,18=40,38=1/1,3;
 2/12=2,17=6,18=5,29=3,40=1/2;
 3/5=1,6=6,7=1,11=9,16=1,25=1,30=1,71=1/1,2,3;
 4//1;
 5/5=2,32=2,38=5/2;
 6/7=2,8=2,9=2,10=2,28=1/1;
 7/29=1/1,2,3,16;
 1/10=7,18=40/3(2);
 2/29=3/2;
 99//99;
 2/29=3/2;
 3/5=1,6=6,7=1,11=9,16=1,25=1,30=1,71=1/1,2,3;
 4/5=5,16=3,69=1/1;
 5/5=2,32=2,38=5/2;
 7//1,2,3,16;
 1/18=40/3(-5);
 2/29=3/2;
 6/7=2,8=2,9=2,10=2,19=2,28=1/1;
 99/9=1/99;
 -------------------
 Title Card Required
 -------------------
 Symbolic Z-matrix:
 Charge =  1 Multiplicity = 1
 C
 H                    1    B1
 H                    1    B2       2    A1
 H                    1    B3       2    A2       3    D1       0
 C                    1    B4       2     109.4712  3     119.99999  0
 O                    5    B5       1    A3       2     119.54469  0
 N                    5    B6       1    A4       6    D2       0
 H                    7    B7       5    A5       6    D3       0
 C                    7    B8       5    A6       6    D4       0
 H                    9    B9       7    A7       5    D5       0
 C                    9    B10      7    A8       5    D6       0
 H                    11   B11      9    A9       7    D7       0
 H                    11   B12      9    A10      7    D8       0
 C                    11   B13      9    A11      7    D9       0
 H                    14   B14      11   A12      9    D10      0
 H                    14   B15      11   A13      9    D11      0
 C                    14   B16      11   A14      9    D12      0
 H                    17   B17      14   A15      11   D13      0
 C                    17   B18      14   A16      11   D14      0
 H                    19   B19      17   A17      14   D15      0
 H                    19   B20      17   A18      14   D16      0
 N                    19   B21      17   A19      14   D17      0
 H                    22   B22      19   A20      17   D18      0
 H                    22   B23      19   A21      17   D19      0
 H                    22   B24      19   A22      17   D20      0
 O                    17   B25      14   A23      11   D21      0
 C                    26   B26      17   A24      14   D22      0
 H                    27   B27      26   A25      17   D23      0
 H                    27   B28      26   A26      17   D24      0
 H                    27   B29      26   A27      17   D25      0
 C                    9    B30      7    A28      5    D26      0
 O                    31   B31      9    A29      7    D27      0
 N                    31   B32      9    A30      7    D28      0
 H                    33   B33      31   A31      9    D29      0
 C                    33   B34      31   A32      9    D30      0
 H                    35   B35      33   A33      31   D31      0
 H                    35   B36      33   A34      31   D32      0
 H                    35   B37      33   A35      31   D33      0
       Variables:
  B1                    1.07                     
  B2                    1.07                     
  B3                    1.07                     
  B4                    1.54                     
  B5                    1.23004                  
  B6                    1.33515                  
  B7                    1.00949                  
  B8                    1.44898                  
  B9                    1.09038                  
  B10                   1.52484                  
  B11                   1.09013                  
  B12                   1.08979                  
  B13                   1.52509                  
  B14                   1.08986                  
  B15                   1.09029                  
  B16                   1.52484                  
  B17                   1.09007                  
  B18                   1.52512                  
  B19                   1.09                     
  B20                   1.08946                  
  B21                   1.47031                  
  B22                   1.01031                  
  B23                   1.01018                  
  B24                   1.00924                  
  B25                   1.43                     
  B26                   1.43                     
  B27                   1.07                     
  B28                   1.07                     
  B29                   1.07                     
  B30                   1.52145                  
  B31                   1.22928                  
  B32                   1.33496                  
  B33                   1.01018                  
  B34                   1.47                     
  B35                   1.07                     
  B36                   1.07                     
  B37                   1.07                     
  A1                  109.47125                  
  A2                  109.47122                  
  A3                  120.48927                  
  A4                  116.61417                  
  A5                  119.98353                  
  A6                  121.88957                  
  A7                  109.5417                   
  A8                  111.10815                  
  A9                  109.50853                  
  A10                 109.50944                  
  A11                 109.49651                  
  A12                 109.51034                  
  A13                 109.49988                  
  A14                 109.49651                  
  A15                 109.48993                  
  A16                 109.46399                  
  A17                 109.45827                  
  A18                 109.54641                  
  A19                 109.45898                  
  A20                 109.47052                  
  A21                 109.4568                   
  A22                 109.46368                  
  A23                 109.4815                   
  A24                 109.5                      
  A25                 109.4712                   
  A26                 109.4712                   
  A27                 109.47123                  
  A28                 111.10855                  
  A29                 120.51056                  
  A30                 116.64838                  
  A31                 119.95943                  
  A32                 121.92804                  
  A33                 109.4712                   
  A34                 109.4712                   
  A35                 109.47123                  
  D1                 -120.00001                  
  D2                  180.                       
  D3                  180.                       
  D4                    0.                       
  D5                  -60.01073                  
  D6                   60.00448                  
  D7                  -60.05308                  
  D8                   59.96365                  
  D9                  179.98822                  
  D10                 -59.98105                  
  D11                  59.96756                  
  D12                 180.                       
  D13                  60.02488                  
  D14                -179.98008                  
  D15                 -59.99977                  
  D16                  59.99543                  
  D17                -180.                       
  D18                  59.99733                  
  D19                 179.97555                  
  D20                 -60.02087                  
  D21                 -59.99408                  
  D22                 157.81268                  
  D23                 106.61357                  
  D24                -133.38641                  
  D25                 -13.38642                  
  D26                 180.                       
  D27                   0.                       
  D28                 180.                       
  D29                   0.                       
  D30                -180.                       
  D31                 176.37309                  
  D32                 -63.62689                  
  D33                  56.3731                   
 
    10 tetrahedral angles replaced.
   10 tetrahedral angles replaced.

 GradGradGradGradGradGradGradGradGradGradGradGradGradGradGradGradGradGrad
 Berny optimization.
 Initialization pass.
                       ----------------------------
                       !    Initial Parameters    !
                       ! (Angstroms and Degrees)  !
 ----------------------                            ----------------------
 !      Name          Value   Derivative information (Atomic Units)     !
 ------------------------------------------------------------------------
 !       B1          1.07     estimate D2E/DX2                          !
 !       B2          1.07     estimate D2E/DX2                          !
 !       B3          1.07     estimate D2E/DX2                          !
 !       B4          1.54     estimate D2E/DX2                          !
 !       B5          1.23     estimate D2E/DX2                          !
 !       B6          1.3351   estimate D2E/DX2                          !
 !       B7          1.0095   estimate D2E/DX2                          !
 !       B8          1.449    estimate D2E/DX2                          !
 !       B9          1.0904   estimate D2E/DX2                          !
 !       B10         1.5248   estimate D2E/DX2                          !
 !       B11         1.0901   estimate D2E/DX2                          !
 !       B12         1.0898   estimate D2E/DX2                          !
 !       B13         1.5251   estimate D2E/DX2                          !
 !       B14         1.0899   estimate D2E/DX2                          !
 !       B15         1.0903   estimate D2E/DX2                          !
 !       B16         1.5248   estimate D2E/DX2                          !
 !       B17         1.0901   estimate D2E/DX2                          !
 !       B18         1.5251   estimate D2E/DX2                          !
 !       B19         1.09     estimate D2E/DX2                          !
 !       B20         1.0895   estimate D2E/DX2                          !
 !       B21         1.4703   estimate D2E/DX2                          !
 !       B22         1.0103   estimate D2E/DX2                          !
 !       B23         1.0102   estimate D2E/DX2                          !
 !       B24         1.0092   estimate D2E/DX2                          !
 !       B25         1.43     estimate D2E/DX2                          !
 !       B26         1.43     estimate D2E/DX2                          !
 !       B27         1.07     estimate D2E/DX2                          !
 !       B28         1.07     estimate D2E/DX2                          !
 !       B29         1.07     estimate D2E/DX2                          !
 !       B30         1.5215   estimate D2E/DX2                          !
 !       B31         1.2293   estimate D2E/DX2                          !
 !       B32         1.335    estimate D2E/DX2                          !
 !       B33         1.0102   estimate D2E/DX2                          !
 !       B34         1.47     estimate D2E/DX2                          !
 !       B35         1.07     estimate D2E/DX2                          !
 !       B36         1.07     estimate D2E/DX2                          !
 !       B37         1.07     estimate D2E/DX2                          !
 !       A1        109.4712   estimate D2E/DX2                          !
 !       A2        109.4712   estimate D2E/DX2                          !
 !       A3        120.4893   estimate D2E/DX2                          !
 !       A4        116.6142   estimate D2E/DX2                          !
 !       A5        119.9835   estimate D2E/DX2                          !
 !       A6        121.8896   estimate D2E/DX2                          !
 !       A7        109.5417   estimate D2E/DX2                          !
 !       A8        111.1081   estimate D2E/DX2                          !
 !       A9        109.5085   estimate D2E/DX2                          !
 !       A10       109.5094   estimate D2E/DX2                          !
 !       A11       109.4965   estimate D2E/DX2                          !
 !       A12       109.5103   estimate D2E/DX2                          !
 !       A13       109.4999   estimate D2E/DX2                          !
 !       A14       109.4965   estimate D2E/DX2                          !
 !       A15       109.4899   estimate D2E/DX2                          !
 !       A16       109.464    estimate D2E/DX2                          !
 !       A17       109.4583   estimate D2E/DX2                          !
 !       A18       109.5464   estimate D2E/DX2                          !
 !       A19       109.459    estimate D2E/DX2                          !
 !       A20       109.4712   estimate D2E/DX2                          !
 !       A21       109.4568   estimate D2E/DX2                          !
 !       A22       109.4637   estimate D2E/DX2                          !
 !       A23       109.4815   estimate D2E/DX2                          !
 !       A24       109.5      estimate D2E/DX2                          !
 !       A25       109.4712   estimate D2E/DX2                          !
 !       A26       109.4712   estimate D2E/DX2                          !
 !       A27       109.4712   estimate D2E/DX2                          !
 !       A28       111.1085   estimate D2E/DX2                          !
 !       A29       120.5106   estimate D2E/DX2                          !
 !       A30       116.6484   estimate D2E/DX2                          !
 !       A31       119.9594   estimate D2E/DX2                          !
 !       A32       121.928    estimate D2E/DX2                          !
 !       A33       109.4712   estimate D2E/DX2                          !
 !       A34       109.4712   estimate D2E/DX2                          !
 !       A35       109.4712   estimate D2E/DX2                          !
 !       D1       -120.0      estimate D2E/DX2                          !
 !       D2        180.0      estimate D2E/DX2                          !
 !       D3        180.0      estimate D2E/DX2                          !
 !       D4          0.0      estimate D2E/DX2                          !
 !       D5        -60.0107   estimate D2E/DX2                          !
 !       D6         60.0045   estimate D2E/DX2                          !
 !       D7        -60.0531   estimate D2E/DX2                          !
 !       D8         59.9636   estimate D2E/DX2                          !
 !       D9        179.9882   estimate D2E/DX2                          !
 !       D10       -59.9811   estimate D2E/DX2                          !
 !       D11        59.9676   estimate D2E/DX2                          !
 !       D12       180.0      estimate D2E/DX2                          !
 !       D13        60.0249   estimate D2E/DX2                          !
 !       D14      -179.9801   estimate D2E/DX2                          !
 !       D15       -59.9998   estimate D2E/DX2                          !
 !       D16        59.9954   estimate D2E/DX2                          !
 !       D17      -180.0      estimate D2E/DX2                          !
 !       D18        59.9973   estimate D2E/DX2                          !
 !       D19       179.9756   estimate D2E/DX2                          !
 !       D20       -60.0209   estimate D2E/DX2                          !
 !       D21       -59.9941   estimate D2E/DX2                          !
 !       D22       157.8127   estimate D2E/DX2                          !
 !       D23       106.6136   estimate D2E/DX2                          !
 !       D24      -133.3864   estimate D2E/DX2                          !
 !       D25       -13.3864   estimate D2E/DX2                          !
 !       D26       180.0      estimate D2E/DX2                          !
 !       D27         0.0      estimate D2E/DX2                          !
 !       D28       180.0      estimate D2E/DX2                          !
 !       D29         0.0      estimate D2E/DX2                          !
 !       D30      -180.0      estimate D2E/DX2                          !
 !       D31       176.3731   estimate D2E/DX2                          !
 !       D32       -63.6269   estimate D2E/DX2                          !
 !       D33        56.3731   estimate D2E/DX2                          !
 ------------------------------------------------------------------------
 Trust Radius=3.00D-01 FncErr=1.00D-07 GrdErr=1.00D-07
 Number of steps in this run=    115 maximum allowed number of steps=    210.
 GradGradGradGradGradGradGradGradGradGradGradGradGradGradGradGradGradGrad

 ---------------------------------------------------------------------------------------------------
                            Z-MATRIX (ANGSTROMS AND DEGREES)
   CD    Cent   Atom    N1       Length/X        N2       Alpha/Y        N3        Beta/Z          J
 ---------------------------------------------------------------------------------------------------
      1      1  C 
      2      2  H        1   1.070000(     1)
      3      3  H        1   1.070000(     2)      2  109.471(    38)
      4      4  H        1   1.070000(     3)      2  109.471(    39)      3 -120.000(    74)      0
      5      5  C        1   1.540000(     4)      2  109.471(    40)      3  120.000(    75)      0
      6      6  O        5   1.230037(     5)      1  120.489(    41)      2  119.545(    76)      0
      7      7  N        5   1.335150(     6)      1  116.614(    42)      6  180.000(    77)      0
      8      8  H        7   1.009495(     7)      5  119.984(    43)      6  180.000(    78)      0
      9      9  C        7   1.448979(     8)      5  121.890(    44)      6    0.000(    79)      0
     10     10  H        9   1.090380(     9)      7  109.542(    45)      5  -60.011(    80)      0
     11     11  C        9   1.524840(    10)      7  111.108(    46)      5   60.004(    81)      0
     12     12  H       11   1.090131(    11)      9  109.509(    47)      7  -60.053(    82)      0
     13     13  H       11   1.089791(    12)      9  109.509(    48)      7   59.964(    83)      0
     14     14  C       11   1.525095(    13)      9  109.497(    49)      7  179.988(    84)      0
     15     15  H       14   1.089861(    14)     11  109.510(    50)      9  -59.981(    85)      0
     16     16  H       14   1.090285(    15)     11  109.500(    51)      9   59.968(    86)      0
     17     17  C       14   1.524840(    16)     11  109.497(    52)      9  180.000(    87)      0
     18     18  H       17   1.090067(    17)     14  109.490(    53)     11   60.025(    88)      0
     19     19  C       17   1.525119(    18)     14  109.464(    54)     11 -179.980(    89)      0
     20     20  H       19   1.089995(    19)     17  109.458(    55)     14  -60.000(    90)      0
     21     21  H       19   1.089461(    20)     17  109.546(    56)     14   59.995(    91)      0
     22     22  N       19   1.470315(    21)     17  109.459(    57)     14 -180.000(    92)      0
     23     23  H       22   1.010312(    22)     19  109.471(    58)     17   59.997(    93)      0
     24     24  H       22   1.010185(    23)     19  109.457(    59)     17  179.976(    94)      0
     25     25  H       22   1.009237(    24)     19  109.464(    60)     17  -60.021(    95)      0
     26     26  O       17   1.430000(    25)     14  109.482(    61)     11  -59.994(    96)      0
     27     27  C       26   1.430000(    26)     17  109.500(    62)     14  157.813(    97)      0
     28     28  H       27   1.070000(    27)     26  109.471(    63)     17  106.614(    98)      0
     29     29  H       27   1.070000(    28)     26  109.471(    64)     17 -133.386(    99)      0
     30     30  H       27   1.070000(    29)     26  109.471(    65)     17  -13.386(   100)      0
     31     31  C        9   1.521455(    30)      7  111.109(    66)      5  180.000(   101)      0
     32     32  O       31   1.229276(    31)      9  120.511(    67)      7    0.000(   102)      0
     33     33  N       31   1.334963(    32)      9  116.648(    68)      7  180.000(   103)      0
     34     34  H       33   1.010177(    33)     31  119.959(    69)      9    0.000(   104)      0
     35     35  C       33   1.470000(    34)     31  121.928(    70)      9 -180.000(   105)      0
     36     36  H       35   1.070000(    35)     33  109.471(    71)     31  176.373(   106)      0
     37     37  H       35   1.070000(    36)     33  109.471(    72)     31  -63.627(   107)      0
     38     38  H       35   1.070000(    37)     33  109.471(    73)     31   56.373(   108)      0
 ---------------------------------------------------------------------------------------------------
                         Z-Matrix orientation:                         
 ---------------------------------------------------------------------
 Center     Atomic      Atomic             Coordinates (Angstroms)
 Number     Number       Type             X           Y           Z
 ---------------------------------------------------------------------
      1          6           0        0.000000    0.000000    0.000000
      2          1           0        0.000000    0.000000    1.070000
      3          1           0        1.008806    0.000000   -0.356667
      4          1           0       -0.504403    0.873651   -0.356667
      5          6           0       -0.725963   -1.257405   -0.513333
      6          8           0       -1.731639   -1.155030   -1.214138
      7          7           0       -0.206680   -2.434919   -0.157763
      8          1           0        0.620983   -2.467706    0.419281
      9          6           0       -0.797417   -3.689909   -0.576774
     10          1           0       -1.820783   -3.753172   -0.205763
     11          6           0       -0.822712   -3.804425   -2.097097
     12          1           0       -1.411315   -2.987037   -2.514000
     13          1           0        0.195129   -3.752199   -2.482996
     14          6           0       -1.449956   -5.135833   -2.496887
     15          1           0       -0.862716   -5.954328   -2.080940
     16          1           0       -2.468478   -5.188613   -2.111466
     17          6           0       -1.475251   -5.250349   -4.017210
     18          1           0       -0.456954   -5.198956   -4.402795
     19          6           0       -2.103067   -6.581762   -4.416179
     20          1           0       -1.515146   -7.399703   -3.999754
     21          1           0       -3.121018   -6.634537   -4.031579
     22          7           0       -2.127402   -6.692068   -5.882148
     23          1           0       -1.183490   -6.644247   -6.239185
     24          1           0       -2.542883   -7.574132   -6.146367
     25          1           0       -2.671900   -5.934654   -6.267385
     26          8           0       -2.246564   -4.177266   -4.563531
     27          6           0       -1.868355   -3.962875   -5.925843
     28          1           0       -2.640469   -4.325683   -6.571684
     29          1           0       -1.723984   -2.916313   -6.095450
     30          1           0       -0.957617   -4.486209   -6.129748
     31          6           0       -0.010595   -4.873903   -0.034653
     32          8           0        0.986419   -4.694481    0.661687
     33          7           0       -0.460583   -6.089153   -0.355280
     34          1           0       -1.285071   -6.186169   -0.930836
     35          6           0        0.210286   -7.313198    0.105749
     36          1           0       -0.349613   -8.167969   -0.211712
     37          1           0        1.195486   -7.357901   -0.309320
     38          1           0        0.273304   -7.304697    1.173858
 ---------------------------------------------------------------------
                    Distance matrix (angstroms):
                    1          2          3          4          5
     1  C    0.000000
     2  H    1.070000   0.000000
     3  H    1.070000   1.747303   0.000000
     4  H    1.070000   1.747303   1.747303   0.000000
     5  C    1.540000   2.148263   2.148263   2.148263   0.000000
     6  O    2.409730   3.090300   3.095058   2.521292   1.230037
     7  N    2.448762   2.734767   2.728699   3.327888   1.335150
     8  H    2.578951   2.626524   2.615736   3.610160   2.036875
     9  C    3.818896   4.118636   4.114160   4.578251   2.434380
    10  H    4.176589   4.362238   4.702728   4.812808   2.742642
    11  C    4.421348   5.018068   4.566969   5.001481   3.000830
    12  H    4.151434   4.874347   4.408340   4.514587   2.732033
    13  H    4.503592   5.171156   4.388889   5.138979   3.309377
    14  C    5.891824   6.418865   6.082995   6.448916   4.415977
    15  H    6.366209   6.791666   6.475318   7.051440   4.953502
    16  H    6.121550   6.567862   6.487876   6.609687   4.587460
    17  C    6.773515   7.458032   6.865587   7.200382   5.364903
    18  H    6.828071   7.562370   6.748981   7.297257   5.544015
    19  C    8.200312   8.822734   8.335645   8.638203   6.743693
    20  H    8.546889   9.096905   8.625429   9.096268   7.106741
    21  H    8.367285   8.932186   8.635827   8.759255   6.857688
    22  N    9.160201   9.881396   9.227704   9.508164   7.766838
    23  H    9.190979   9.948409   9.140908   9.569951   7.874819
    24  H   10.080256  10.766136  10.173623  10.442273   8.656403
    25  H    9.035446   9.807976   9.149006   9.272953   7.666319
    26  O    6.581976   7.364324   6.763482   6.800338   5.219379
    27  C    7.369582   8.254511   7.416074   7.501205   6.157913
    28  H    8.298834   9.169457   8.405664   8.379875   7.055727
    29  H    6.973630   7.925950   6.993330   6.984615   5.908304
    30  H    7.656168   8.536947   7.571087   7.890625   6.482511
    31  C    4.874037   4.997529   4.989769   5.777708   3.717518
    32  O    4.842418   4.814343   4.803717   5.853520   4.015771
    33  N    6.116874   6.270674   6.263936   6.962942   4.841611
    34  H    6.386435   6.627476   6.622705   7.126021   4.977914
    35  C    7.316985   7.379490   7.371182   8.230985   6.158933
    36  H    8.178188   8.275308   8.281426   9.044106   6.927374
    37  H    7.460803   7.580925   7.360421   8.405374   6.399191
    38  H    7.403461   7.310545   7.499471   8.356597   6.357270
                    6          7          8          9         10
     6  O    0.000000
     7  N    2.253785   0.000000
     8  H    3.150556   1.009495   0.000000
     9  C    2.775718   1.448979   2.120793   0.000000
    10  H    2.788388   2.084568   2.829368   1.090380   0.000000
    11  C    2.936845   2.452766   3.194250   1.524840   2.139140
    12  H    2.269031   2.703301   3.606117   2.150290   2.466290
    13  H    3.473863   2.702478   3.202263   2.150049   3.041330
    14  C    4.191847   3.783143   4.462256   2.490650   2.701575
    15  H    4.953750   4.063894   4.539714   2.719260   3.046189
    16  H    4.197371   4.063929   4.832472   2.719162   2.472186
    17  C    4.969365   4.942798   5.640900   3.838103   4.109508
    18  H    5.305251   5.071769   5.645714   4.126933   4.643856
    19  C    6.311929   6.239127   6.908515   4.980820   5.080178
    20  H    6.841233   6.412649   6.958126   5.098481   5.271145
    21  H    6.316118   6.413783   7.153685   5.099572   4.962836
    22  N    7.252981   7.387901   8.068883   6.239296   6.399412
    23  H    7.462109   7.460315   8.064415   6.398442   6.720612
    24  H    8.135716   8.229990   8.899066   7.011006   7.100136
    25  H    7.018846   7.460090   8.220359   6.398095   6.498194
    26  O    4.540649   5.158265   5.997820   4.269869   4.399010
    27  C    5.486606   6.194075   6.978033   5.462047   5.724120
    28  H    6.291448   7.115947   7.934907   6.303967   6.443959
    29  H    5.189353   6.147364   6.938432   5.649138   5.949632
    30  H    5.988246   6.358955   7.032504   5.612066   6.031252
    31  C    4.264175   2.449948   2.528780   1.521455   2.135906
    32  O    4.840896   2.683394   2.269545   2.392702   3.085274
    33  N    5.167087   3.668366   3.858058   2.432877   2.707269
    34  H    5.058858   3.979001   4.391221   2.567972   2.594646
    35  C    6.590615   4.903153   4.872963   3.822241   4.110482
    36  H    7.217767   5.735085   5.816631   4.515176   4.653472
    37  H    6.918263   5.121015   4.977441   4.182985   4.701348
    38  H    6.894978   5.071324   4.907825   4.156663   4.347629
                   11         12         13         14         15
    11  C    0.000000
    12  H    1.090131   0.000000
    13  H    1.089791   1.779634   0.000000
    14  C    1.525095   2.149211   2.149637   0.000000
    15  H    2.150336   3.048494   2.475895   1.089861   0.000000
    16  H    2.150519   2.475189   3.048954   1.090285   1.779248
    17  C    2.490650   2.717776   2.718168   1.524840   2.149401
    18  H    2.719327   3.061198   2.490772   2.150006   2.475124
    19  C    3.838105   4.125391   4.126176   2.490170   2.717625
    20  H    4.126208   4.657238   4.304635   2.718082   2.489301
    21  H    4.127222   4.304693   4.658627   2.719162   3.060654
    22  N    4.936326   5.058108   5.058776   3.786925   4.073435
    23  H    5.035041   5.225331   4.936951   4.043651   4.227278
    24  H    5.793640   5.959528   5.960216   4.523107   4.687688
    25  H    5.034746   4.936133   5.225377   4.043256   4.560686
    26  O    2.872222   2.512939   3.235919   2.413391   3.352051
    27  C    3.972124   3.577962   4.019397   3.648100   4.445276
    28  H    4.857765   4.446076   5.008679   4.321763   5.097026
    29  H    4.193788   3.595768   4.175108   4.236864   5.107603
    30  H    4.092102   3.940430   3.894406   3.723183   4.307810
    31  C    2.461096   3.416056   2.700912   2.864081   2.465912
    32  O    3.417023   4.330068   3.376843   4.013391   3.539565
    33  N    2.895694   3.897061   3.227768   2.544436   1.777017
    34  H    2.691959   3.571665   3.244133   1.892857   1.246945
    35  C    4.269790   5.311153   4.402561   3.777702   2.789170
    36  H    4.776925   5.767997   4.995447   3.953053   2.942362
    37  H    4.460545   5.546213   4.327433   4.089181   3.056935
    38  H    4.914499   5.922873   5.098915   4.598691   3.702397
                   16         17         18         19         20
    16  H    0.000000
    17  C    2.149923   0.000000
    18  H    3.049020   1.090067   0.000000
    19  C    2.717736   1.525119   2.149889   0.000000
    20  H    3.059967   2.149795   2.474975   1.089995   0.000000
    21  H    2.490650   2.150519   3.048923   1.089461   1.779134
    22  N    4.073666   2.445782   2.684822   1.470315   2.102145
    23  H    4.561592   2.639175   2.447253   2.042762   2.386579
    24  H    4.687927   3.327629   3.610070   2.042495   2.386340
    25  H    4.227247   2.638850   2.987295   2.041882   2.937107
    26  O    2.661708   1.430000   2.066977   2.413277   3.352152
    27  C    4.051179   2.335595   2.416532   3.031954   3.955549
    28  H    4.546182   2.956024   3.199128   3.166211   4.163025
    29  H    4.646476   3.135072   3.111415   4.049589   4.953417
    30  H    4.350019   2.305357   1.934177   2.939340   3.651871
    31  C    3.233170   4.260010   4.402904   5.147135   4.936129
    32  O    4.457675   5.316097   5.290255   6.236304   5.941809
    33  N    2.815458   3.891384   4.144254   4.408097   4.013955
    34  H    1.946653   3.230732   3.703359   3.601836   3.308150
    35  C    4.075007   4.908683   5.024161   5.131709   4.454184
    36  H    4.120099   4.925584   5.137289   4.823712   4.037074
    37  H    4.623655   5.032203   4.914076   5.324391   4.579146
    38  H    4.773734   5.850211   6.005537   6.117049   5.474837
                   21         22         23         24         25
    21  H    0.000000
    22  N    2.101235   0.000000
    23  H    2.937282   1.010312   0.000000
    24  H    2.385247   1.010185   1.649621   0.000000
    25  H    2.385450   1.009237   1.649145   1.648993   0.000000
    26  O    2.661921   2.842038   3.166060   3.759239   2.484440
    27  C    3.506448   2.741808   2.785136   3.680326   2.156444
    28  H    3.466102   2.517632   2.758456   3.277626   1.637795
    29  H    4.476210   3.803231   3.769653   4.729531   3.168357
    30  H    3.701071   2.509087   2.172585   3.471111   2.248489
    31  C    5.361901   6.479182   6.557897   7.145402   6.859642
    32  O    6.531585   7.517182   7.492138   8.191335   7.933055
    33  N    4.570615   5.804142   5.954079   6.330705   6.314014
    34  H    3.631300   5.047866   5.329045   5.541687   5.519539
    35  C    5.354965   6.457980   6.530566   6.836445   7.129110
    36  H    4.962205   6.123126   6.272759   6.354779   6.859438
    37  H    5.745492   6.522373   6.429007   6.934932   7.244367
    38  H    6.250368   7.478364   7.583643   7.847879   8.119319
                   26         27         28         29         30
    26  O    0.000000
    27  C    1.430000   0.000000
    28  H    2.051796   1.070000   0.000000
    29  H    2.051796   1.070000   1.747303   0.000000
    30  H    2.051796   1.070000   1.747303   1.747303   0.000000
    31  C    5.098588   6.243987   7.067500   6.595538   6.180400
    32  O    6.166247   7.216685   8.100123   7.494470   7.067266
    33  N    4.955241   6.126504   6.819487   6.679270   6.013397
    34  H    4.261060   5.498486   6.092427   6.128445   5.479578
    35  C    6.137782   7.205937   7.851125   7.844034   6.945307
    36  H    6.201811   7.255390   7.775630   8.005445   6.996297
    37  H    6.329492   7.242836   7.945194   7.856864   6.838118
    38  H    7.003441   8.133894   8.795340   8.722953   7.924752
                   31         32         33         34         35
    31  C    0.000000
    32  O    1.229276   0.000000
    33  N    1.334963   2.252365   0.000000
    34  H    2.037026   3.149751   1.010177   0.000000
    35  C    2.453297   2.787316   1.470000   2.140280   0.000000
    36  H    3.316196   3.822685   2.086720   2.306459   1.070000
    37  H    2.774946   2.842599   2.086720   2.812900   1.070000
    38  H    2.729443   2.753920   2.086720   2.847696   1.070000
                   36         37         38
    36  H    0.000000
    37  H    1.747303   0.000000
    38  H    1.747303   1.747303   0.000000
 Stoichiometry    C10H22N3O3(1+)
 Framework group  C1[X(C10H22N3O3)]
 Deg. of freedom   108
 Full point group                 C1      NOp   1
 Largest Abelian subgroup         C1      NOp   1
 Largest concise Abelian subgroup C1      NOp   1
                         Standard orientation:                         
 ---------------------------------------------------------------------
 Center     Atomic      Atomic             Coordinates (Angstroms)
 Number     Number       Type             X           Y           Z
 ---------------------------------------------------------------------
      1          6           0        4.219241   -2.331122    0.392922
      2          1           0        5.068162   -1.817360   -0.007431
      3          1           0        4.218889   -2.242427    1.459240
      4          1           0        4.267095   -3.364893    0.121027
      5          6           0        2.929060   -1.710351   -0.174244
      6          8           0        2.146633   -2.391826   -0.834844
      7          7           0        2.720290   -0.418488    0.090573
      8          1           0        3.392263    0.099344    0.637733
      9          6           0        1.544133    0.280391   -0.386670
     10          1           0        1.517596    0.247877   -1.476242
     11          6           0        0.268959   -0.360091    0.150779
     12          1           0        0.215028   -1.397306   -0.180374
     13          1           0        0.276171   -0.326894    1.240041
     14          6           0       -0.943474    0.402686   -0.372758
     15          1           0       -0.891283    1.440019   -0.042586
     16          1           0       -0.951556    0.369548   -1.462510
     17          6           0       -2.218648   -0.237797    0.164690
     18          1           0       -2.211510   -0.203633    1.254198
     19          6           0       -3.430593    0.525231   -0.359683
     20          1           0       -3.377532    1.562504   -0.029021
     21          1           0       -3.439162    0.491842   -1.448599
     22          7           0       -4.660099   -0.092437    0.158610
     23          1           0       -4.653080   -0.060738    1.168401
     24          1           0       -5.462811    0.413234   -0.188411
     25          1           0       -4.708961   -1.052794   -0.147799
     26          8           0       -2.288261   -1.598629   -0.269117
     27          6           0       -3.147279   -2.335052    0.605338
     28          1           0       -4.072060   -2.539901    0.107626
     29          1           0       -2.675812   -3.256812    0.875480
     30          1           0       -3.336726   -1.759470    1.487220
     31          6           0        1.554820    1.736200    0.055295
     32          8           0        2.483567    2.177017    0.729260
     33          7           0        0.517626    2.485266   -0.325827
     34          1           0       -0.222425    2.077804   -0.879683
     35          6           0        0.409847    3.905842    0.036454
     36          1           0       -0.460816    4.325850   -0.422283
     37          1           0        0.332389    3.997896    1.099669
     38          1           0        1.279516    4.427806   -0.304322
 ---------------------------------------------------------------------
 Rotational constants (GHZ):      0.5930866      0.3072261      0.2114912
 Standard basis: 6-31G(d) (6D, 7F)
 There are   284 symmetry adapted cartesian basis functions of A   symmetry.
 There are   284 symmetry adapted basis functions of A   symmetry.
   284 basis functions,   536 primitive gaussians,   284 cartesian basis functions
    63 alpha electrons       63 beta electrons
       nuclear repulsion energy      1220.9560901755 Hartrees.
 NAtoms=   38 NActive=   38 NUniq=   38 SFac= 1.00D+00 NAtFMM=   60 NAOKFM=F Big=F
 Integral buffers will be    131072 words long.
 Raffenetti 1 integral format.
 Two-electron integral symmetry is turned on.
 One-electron integrals computed using PRISM.
 NBasis=   284 RedAO= T EigKep=  1.66D-03  NBF=   284
 NBsUse=   284 1.00D-06 EigRej= -1.00D+00 NBFU=   284
 ExpMin= 1.61D-01 ExpMax= 5.48D+03 ExpMxC= 8.25D+02 IAcc=1 IRadAn=         1 AccDes= 0.00D+00
 Harris functional with IExCor=  205 and IRadAn=       1 diagonalized for initial guess.
 HarFok:  IExCor=  205 AccDes= 0.00D+00 IRadAn=         1 IDoV= 1 UseB2=F ITyADJ=14
 ICtDFT=  3500011 ScaDFX=  1.000000  1.000000  1.000000  1.000000
 FoFCou: FMM=F IPFlag=           0 FMFlag=      100000 FMFlg1=           0
         NFxFlg=           0 DoJE=T BraDBF=F KetDBF=T FulRan=T
         wScrn=  0.000000 ICntrl=     500 IOpCl=  0 I1Cent=   200000004 NGrid=           0
         NMat0=    1 NMatS0=      1 NMatT0=    0 NMatD0=    1 NMtDS0=    0 NMtDT0=    0
 Petite list used in FoFCou.
 Keep R1 ints in memory in canonical form, NReq=830770067.
 Requested convergence on RMS density matrix=1.00D-08 within 128 cycles.
 Requested convergence on MAX density matrix=1.00D-06.
 Requested convergence on             energy=1.00D-06.
 No special actions if energy rises.
 SCF Done:  E(RHF) =  -779.138674781     A.U. after   14 cycles
            NFock= 14  Conv=0.36D-08     -V/T= 2.0010

 **********************************************************************

            Population analysis using the SCF density.

 **********************************************************************

 Orbital symmetries:
       Occupied  (A) (A) (A) (A) (A) (A) (A) (A) (A) (A) (A) (A)
                 (A) (A) (A) (A) (A) (A) (A) (A) (A) (A) (A) (A)
                 (A) (A) (A) (A) (A) (A) (A) (A) (A) (A) (A) (A)
                 (A) (A) (A) (A) (A) (A) (A) (A) (A) (A) (A) (A)
                 (A) (A) (A) (A) (A) (A) (A) (A) (A) (A) (A) (A)
                 (A) (A) (A)
       Virtual   (A) (A) (A) (A) (A) (A) (A) (A) (A) (A) (A) (A)
                 (A) (A) (A) (A) (A) (A) (A) (A) (A) (A) (A) (A)
                 (A) (A) (A) (A) (A) (A) (A) (A) (A) (A) (A) (A)
                 (A) (A) (A) (A) (A) (A) (A) (A) (A) (A) (A) (A)
                 (A) (A) (A) (A) (A) (A) (A) (A) (A) (A) (A) (A)
                 (A) (A) (A) (A) (A) (A) (A) (A) (A) (A) (A) (A)
                 (A) (A) (A) (A) (A) (A) (A) (A) (A) (A) (A) (A)
                 (A) (A) (A) (A) (A) (A) (A) (A) (A) (A) (A) (A)
                 (A) (A) (A) (A) (A) (A) (A) (A) (A) (A) (A) (A)
                 (A) (A) (A) (A) (A) (A) (A) (A) (A) (A) (A) (A)
                 (A) (A) (A) (A) (A) (A) (A) (A) (A) (A) (A) (A)
                 (A) (A) (A) (A) (A) (A) (A) (A) (A) (A) (A) (A)
                 (A) (A) (A) (A) (A) (A) (A) (A) (A) (A) (A) (A)
                 (A) (A) (A) (A) (A) (A) (A) (A) (A) (A) (A) (A)
                 (A) (A) (A) (A) (A) (A) (A) (A) (A) (A) (A) (A)
                 (A) (A) (A) (A) (A) (A) (A) (A) (A) (A) (A) (A)
                 (A) (A) (A) (A) (A) (A) (A) (A) (A) (A) (A) (A)
                 (A) (A) (A) (A) (A) (A) (A) (A) (A) (A) (A) (A)
                 (A) (A) (A) (A) (A)
 The electronic state is 1-A.
 Alpha  occ. eigenvalues --  -20.72820 -20.61824 -20.58827 -15.90055 -15.68789
 Alpha  occ. eigenvalues --  -15.66462 -11.47475 -11.45609 -11.44597 -11.43193
 Alpha  occ. eigenvalues --  -11.42025 -11.37453 -11.35825 -11.35344 -11.33155
 Alpha  occ. eigenvalues --  -11.29113  -1.55341  -1.52075  -1.47602  -1.44430
 Alpha  occ. eigenvalues --   -1.34449  -1.31481  -1.24558  -1.18010  -1.11653
 Alpha  occ. eigenvalues --   -1.09829  -1.06676  -1.04785  -1.02386  -0.99963
 Alpha  occ. eigenvalues --   -0.96872  -0.95124  -0.90566  -0.87025  -0.86348
 Alpha  occ. eigenvalues --   -0.83967  -0.81996  -0.80382  -0.78817  -0.77324
 Alpha  occ. eigenvalues --   -0.76349  -0.74399  -0.73733  -0.73190  -0.71760
 Alpha  occ. eigenvalues --   -0.69821  -0.69360  -0.68017  -0.67370  -0.66039
 Alpha  occ. eigenvalues --   -0.65793  -0.64850  -0.62981  -0.62612  -0.61376
 Alpha  occ. eigenvalues --   -0.60681  -0.59973  -0.58770  -0.56845  -0.51196
 Alpha  occ. eigenvalues --   -0.48499  -0.48074  -0.46489
 Alpha virt. eigenvalues --   -0.01748   0.03820   0.05010   0.06747   0.09243
 Alpha virt. eigenvalues --    0.10066   0.12216   0.13087   0.13615   0.14722
 Alpha virt. eigenvalues --    0.15545   0.16211   0.16938   0.17355   0.17824
 Alpha virt. eigenvalues --    0.19124   0.19995   0.21450   0.22159   0.23247
 Alpha virt. eigenvalues --    0.23418   0.24236   0.24824   0.25447   0.25682
 Alpha virt. eigenvalues --    0.26776   0.27207   0.28616   0.29495   0.31225
 Alpha virt. eigenvalues --    0.32851   0.34200   0.36758   0.37781   0.39473
 Alpha virt. eigenvalues --    0.43867   0.44749   0.51407   0.53576   0.54419
 Alpha virt. eigenvalues --    0.55689   0.58443   0.59914   0.60005   0.61165
 Alpha virt. eigenvalues --    0.63335   0.65392   0.66736   0.66757   0.67569
 Alpha virt. eigenvalues --    0.68086   0.68349   0.70563   0.70990   0.74218
 Alpha virt. eigenvalues --    0.75487   0.75718   0.77598   0.78231   0.79331
 Alpha virt. eigenvalues --    0.82567   0.85121   0.85495   0.87461   0.88029
 Alpha virt. eigenvalues --    0.89267   0.90592   0.91081   0.91457   0.92023
 Alpha virt. eigenvalues --    0.93347   0.93560   0.94180   0.95006   0.97643
 Alpha virt. eigenvalues --    0.98187   0.99913   1.01159   1.02153   1.02573
 Alpha virt. eigenvalues --    1.02817   1.03460   1.03960   1.04893   1.06115
 Alpha virt. eigenvalues --    1.06403   1.07988   1.08454   1.09309   1.10555
 Alpha virt. eigenvalues --    1.10663   1.11904   1.12257   1.12819   1.13383
 Alpha virt. eigenvalues --    1.14097   1.14748   1.15948   1.17399   1.18652
 Alpha virt. eigenvalues --    1.20554   1.21077   1.23755   1.26861   1.27251
 Alpha virt. eigenvalues --    1.30115   1.31842   1.33538   1.37871   1.40553
 Alpha virt. eigenvalues --    1.42332   1.44390   1.48752   1.50516   1.51793
 Alpha virt. eigenvalues --    1.53678   1.54633   1.56900   1.58380   1.58513
 Alpha virt. eigenvalues --    1.60077   1.62646   1.64706   1.65097   1.67154
 Alpha virt. eigenvalues --    1.69870   1.70997   1.72988   1.79319   1.81903
 Alpha virt. eigenvalues --    1.84192   1.85737   1.88076   1.90117   1.93386
 Alpha virt. eigenvalues --    1.95030   1.98262   2.00094   2.00602   2.01955
 Alpha virt. eigenvalues --    2.03655   2.05298   2.06870   2.07570   2.08098
 Alpha virt. eigenvalues --    2.10125   2.11938   2.12750   2.13343   2.14522
 Alpha virt. eigenvalues --    2.16016   2.17270   2.18753   2.19880   2.21979
 Alpha virt. eigenvalues --    2.23091   2.24010   2.26581   2.27068   2.28491
 Alpha virt. eigenvalues --    2.29926   2.32850   2.33263   2.34900   2.36523
 Alpha virt. eigenvalues --    2.38804   2.42494   2.43996   2.45994   2.47293
 Alpha virt. eigenvalues --    2.48979   2.49547   2.51329   2.52583   2.54071
 Alpha virt. eigenvalues --    2.57740   2.59393   2.59885   2.63393   2.64495
 Alpha virt. eigenvalues --    2.66234   2.67905   2.69968   2.71498   2.74725
 Alpha virt. eigenvalues --    2.75174   2.79005   2.81135   2.84364   2.85358
 Alpha virt. eigenvalues --    2.88002   2.92025   2.94978   2.97496   3.00067
 Alpha virt. eigenvalues --    3.03132   3.06055   3.12256   3.16594   3.21349
 Alpha virt. eigenvalues --    3.23150   3.26990   3.31023   3.43933   3.53424
 Alpha virt. eigenvalues --    4.03661   4.24564   4.34165   4.36951   4.41226
 Alpha virt. eigenvalues --    4.43314   4.50241   4.56451   4.59881   4.61314
 Alpha virt. eigenvalues --    4.62727   4.74729   4.80165   4.81593   4.88091
 Alpha virt. eigenvalues --    5.01664
          Condensed to atoms (all electrons):
               1          2          3          4          5          6
     1  C    5.224098   0.378144   0.377198   0.387825   0.383595  -0.066256
     2  H    0.378144   0.489944  -0.023549  -0.017894  -0.032215   0.001256
     3  H    0.377198  -0.023549   0.503170  -0.018903  -0.034097   0.001276
     4  H    0.387825  -0.017894  -0.018903   0.447724  -0.032194   0.003573
     5  C    0.383595  -0.032215  -0.034097  -0.032194   4.206038   0.581260
     6  O   -0.066256   0.001256   0.001276   0.003573   0.581260   8.213265
     7  N   -0.115569   0.002968   0.003199   0.004085   0.236747  -0.107337
     8  H   -0.001251   0.000583   0.000459  -0.000015  -0.016046   0.001936
     9  C    0.004771  -0.000249  -0.000086  -0.000089  -0.030148   0.014887
    10  H   -0.000008  -0.000004  -0.000002   0.000001  -0.001638   0.003191
    11  C   -0.000419   0.000009   0.000016   0.000006  -0.002754  -0.016233
    12  H    0.000351  -0.000005  -0.000029  -0.000001   0.000473   0.015185
    13  H   -0.000035   0.000000   0.000000   0.000000   0.000188   0.000055
    14  C    0.000004   0.000000  -0.000001   0.000000   0.000258   0.000318
    15  H    0.000000   0.000000   0.000000   0.000000  -0.000010  -0.000011
    16  H    0.000000   0.000000   0.000000   0.000000  -0.000006   0.000034
    17  C    0.000000   0.000000   0.000000   0.000000  -0.000003   0.000013
    18  H    0.000000   0.000000   0.000000   0.000000   0.000000   0.000000
    19  C    0.000000   0.000000   0.000000   0.000000   0.000000   0.000000
    20  H    0.000000   0.000000   0.000000   0.000000   0.000000   0.000000
    21  H    0.000000   0.000000   0.000000   0.000000   0.000000   0.000000
    22  N    0.000000   0.000000   0.000000   0.000000   0.000000   0.000000
    23  H    0.000000   0.000000   0.000000   0.000000   0.000000   0.000000
    24  H    0.000000   0.000000   0.000000   0.000000   0.000000   0.000000
    25  H    0.000000   0.000000   0.000000   0.000000   0.000000   0.000000
    26  O    0.000000   0.000000   0.000000   0.000000  -0.000003  -0.000006
    27  C    0.000000   0.000000   0.000000   0.000000   0.000000   0.000000
    28  H    0.000000   0.000000   0.000000   0.000000   0.000000   0.000000
    29  H    0.000000   0.000000   0.000000   0.000000   0.000000   0.000000
    30  H    0.000000   0.000000   0.000000   0.000000   0.000000   0.000000
    31  C    0.000009  -0.000009  -0.000007   0.000000   0.003960   0.000560
    32  O   -0.000039   0.000000  -0.000001   0.000000   0.000276  -0.000003
    33  N    0.000000   0.000000   0.000000   0.000000  -0.000084  -0.000002
    34  H    0.000000   0.000000   0.000000   0.000000  -0.000001   0.000002
    35  C    0.000000   0.000000   0.000000   0.000000   0.000001   0.000000
    36  H    0.000000   0.000000   0.000000   0.000000   0.000000   0.000000
    37  H    0.000000   0.000000   0.000000   0.000000   0.000000   0.000000
    38  H    0.000000   0.000000   0.000000   0.000000   0.000000   0.000000
               7          8          9         10         11         12
     1  C   -0.115569  -0.001251   0.004771  -0.000008  -0.000419   0.000351
     2  H    0.002968   0.000583  -0.000249  -0.000004   0.000009  -0.000005
     3  H    0.003199   0.000459  -0.000086  -0.000002   0.000016  -0.000029
     4  H    0.004085  -0.000015  -0.000089   0.000001   0.000006  -0.000001
     5  C    0.236747  -0.016046  -0.030148  -0.001638  -0.002754   0.000473
     6  O   -0.107337   0.001936   0.014887   0.003191  -0.016233   0.015185
     7  N    7.401944   0.312193   0.215218  -0.035017  -0.060681  -0.006546
     8  H    0.312193   0.278558  -0.028325   0.002118   0.002965  -0.000145
     9  C    0.215218  -0.028325   5.031934   0.404378   0.334323  -0.021972
    10  H   -0.035017   0.002118   0.404378   0.483680  -0.049902  -0.003193
    11  C   -0.060681   0.002965   0.334323  -0.049902   5.233670   0.387871
    12  H   -0.006546  -0.000145  -0.021972  -0.003193   0.387871   0.382295
    13  H    0.003230   0.000193  -0.042941   0.004169   0.392982  -0.016361
    14  C    0.004657  -0.000072  -0.058812  -0.001568   0.292080  -0.030336
    15  H   -0.000171   0.000006  -0.004604   0.000784  -0.035492   0.002917
    16  H    0.000013   0.000000  -0.002078   0.002107  -0.037472  -0.001285
    17  C   -0.000080   0.000002   0.004590  -0.000213  -0.047923  -0.006542
    18  H   -0.000005   0.000000  -0.000077  -0.000008  -0.004308   0.000592
    19  C    0.000001   0.000000  -0.000053   0.000012   0.004675   0.000091
    20  H    0.000000   0.000000  -0.000004   0.000000  -0.000148  -0.000008
    21  H    0.000000   0.000000  -0.000005  -0.000003  -0.000070   0.000022
    22  N    0.000000   0.000000   0.000000   0.000000  -0.000082  -0.000002
    23  H    0.000000   0.000000   0.000000   0.000000  -0.000004   0.000001
    24  H    0.000000   0.000000   0.000000   0.000000   0.000002   0.000000
    25  H    0.000000   0.000000   0.000000   0.000000  -0.000005  -0.000001
    26  O    0.000000   0.000000   0.000022   0.000012  -0.000844   0.005323
    27  C    0.000000   0.000000   0.000004   0.000000   0.000078  -0.000246
    28  H    0.000000   0.000000   0.000000   0.000000   0.000019   0.000017
    29  H    0.000000   0.000000  -0.000001   0.000000   0.000042  -0.000037
    30  H    0.000000   0.000000   0.000001   0.000000  -0.000094   0.000044
    31  C   -0.037637  -0.004588   0.371483  -0.038506  -0.056886   0.003411
    32  O   -0.005540   0.019262  -0.077345   0.000690   0.000430  -0.000048
    33  N    0.002922   0.000747  -0.121760   0.002633   0.016428  -0.000270
    34  H   -0.000042  -0.000022   0.003212   0.001179  -0.003221  -0.000146
    35  C   -0.000053  -0.000020   0.003865  -0.000154  -0.000363   0.000004
    36  H    0.000000   0.000000   0.000025  -0.000004  -0.000004   0.000000
    37  H    0.000001   0.000000   0.000052  -0.000002  -0.000047  -0.000001
    38  H   -0.000003  -0.000001  -0.000075   0.000003   0.000006   0.000000
              13         14         15         16         17         18
     1  C   -0.000035   0.000004   0.000000   0.000000   0.000000   0.000000
     2  H    0.000000   0.000000   0.000000   0.000000   0.000000   0.000000
     3  H    0.000000  -0.000001   0.000000   0.000000   0.000000   0.000000
     4  H    0.000000   0.000000   0.000000   0.000000   0.000000   0.000000
     5  C    0.000188   0.000258  -0.000010  -0.000006  -0.000003   0.000000
     6  O    0.000055   0.000318  -0.000011   0.000034   0.000013   0.000000
     7  N    0.003230   0.004657  -0.000171   0.000013  -0.000080  -0.000005
     8  H    0.000193  -0.000072   0.000006   0.000000   0.000002   0.000000
     9  C   -0.042941  -0.058812  -0.004604  -0.002078   0.004590  -0.000077
    10  H    0.004169  -0.001568   0.000784   0.002107  -0.000213  -0.000008
    11  C    0.392982   0.292080  -0.035492  -0.037472  -0.047923  -0.004308
    12  H   -0.016361  -0.030336   0.002917  -0.001285  -0.006542   0.000592
    13  H    0.525211  -0.042702  -0.001972   0.003801  -0.005499   0.001759
    14  C   -0.042702   5.385519   0.405030   0.388439   0.359568  -0.028472
    15  H   -0.001972   0.405030   0.563266  -0.034886  -0.034356  -0.001148
    16  H    0.003801   0.388439  -0.034886   0.503210  -0.030567   0.003893
    17  C   -0.005499   0.359568  -0.034356  -0.030567   4.869139   0.403377
    18  H    0.001759  -0.028472  -0.001148   0.003893   0.403377   0.534479
    19  C    0.000095  -0.069910  -0.002673  -0.006923   0.327634  -0.060028
    20  H    0.000013   0.000676   0.000300   0.000523  -0.033806   0.001817
    21  H   -0.000006  -0.001317   0.000566   0.002026  -0.031069   0.003506
    22  N    0.000000   0.003487  -0.000013  -0.000013  -0.057042  -0.003697
    23  H   -0.000002  -0.000041   0.000017   0.000001  -0.000170   0.003299
    24  H    0.000000  -0.000087   0.000000  -0.000001   0.003621  -0.000223
    25  H    0.000000  -0.000097  -0.000006   0.000023  -0.005332   0.000905
    26  O    0.000231  -0.054771   0.002251  -0.000581   0.197797  -0.035411
    27  C    0.000001   0.005714  -0.000110  -0.000162  -0.045605  -0.017164
    28  H    0.000001  -0.000536   0.000006  -0.000001   0.000246  -0.000125
    29  H    0.000001   0.000062   0.000001   0.000005   0.002671   0.000541
    30  H   -0.000004   0.000471   0.000004   0.000008  -0.011290   0.005038
    31  C   -0.001891  -0.002317   0.006222   0.000175  -0.000484   0.000015
    32  O    0.000519   0.000220  -0.000403  -0.000016  -0.000001  -0.000001
    33  N    0.000799  -0.098275  -0.046045  -0.001904   0.004224   0.000072
    34  H    0.000643  -0.005725  -0.034065   0.005407   0.000331   0.000102
    35  C   -0.000042   0.002443   0.002204   0.000021  -0.000106   0.000000
    36  H    0.000000   0.000065   0.000290   0.000012  -0.000010   0.000000
    37  H    0.000002   0.000331  -0.001339  -0.000008   0.000001  -0.000002
    38  H    0.000000  -0.000111   0.000102   0.000001   0.000002   0.000000
              19         20         21         22         23         24
     1  C    0.000000   0.000000   0.000000   0.000000   0.000000   0.000000
     2  H    0.000000   0.000000   0.000000   0.000000   0.000000   0.000000
     3  H    0.000000   0.000000   0.000000   0.000000   0.000000   0.000000
     4  H    0.000000   0.000000   0.000000   0.000000   0.000000   0.000000
     5  C    0.000000   0.000000   0.000000   0.000000   0.000000   0.000000
     6  O    0.000000   0.000000   0.000000   0.000000   0.000000   0.000000
     7  N    0.000001   0.000000   0.000000   0.000000   0.000000   0.000000
     8  H    0.000000   0.000000   0.000000   0.000000   0.000000   0.000000
     9  C   -0.000053  -0.000004  -0.000005   0.000000   0.000000   0.000000
    10  H    0.000012   0.000000  -0.000003   0.000000   0.000000   0.000000
    11  C    0.004675  -0.000148  -0.000070  -0.000082  -0.000004   0.000002
    12  H    0.000091  -0.000008   0.000022  -0.000002   0.000001   0.000000
    13  H    0.000095   0.000013  -0.000006   0.000000  -0.000002   0.000000
    14  C   -0.069910   0.000676  -0.001317   0.003487  -0.000041  -0.000087
    15  H   -0.002673   0.000300   0.000566  -0.000013   0.000017   0.000000
    16  H   -0.006923   0.000523   0.002026  -0.000013   0.000001  -0.000001
    17  C    0.327634  -0.033806  -0.031069  -0.057042  -0.000170   0.003621
    18  H   -0.060028   0.001817   0.003506  -0.003697   0.003299  -0.000223
    19  C    5.239966   0.387605   0.395819   0.131641  -0.020446  -0.019693
    20  H    0.387605   0.444177  -0.015281  -0.034239  -0.001826  -0.002859
    21  H    0.395819  -0.015281   0.413524  -0.034862   0.002763  -0.002113
    22  N    0.131641  -0.034239  -0.034862   6.989664   0.304899   0.311848
    23  H   -0.020446  -0.001826   0.002763   0.304899   0.262463  -0.008710
    24  H   -0.019693  -0.002859  -0.002113   0.311848  -0.008710   0.251650
    25  H   -0.016078   0.002820  -0.001470   0.287839  -0.007830  -0.009944
    26  O   -0.054678   0.003055   0.000633   0.004047  -0.000364  -0.000213
    27  C   -0.007669  -0.000303  -0.000290  -0.029084  -0.000675   0.000714
    28  H    0.002917  -0.000140   0.000078  -0.011714  -0.000221   0.000255
    29  H   -0.000255   0.000014  -0.000002   0.000386  -0.000042  -0.000007
    30  H   -0.002095  -0.000046   0.000133  -0.002330   0.003113   0.000157
    31  C   -0.000013   0.000005   0.000002   0.000000   0.000000   0.000000
    32  O    0.000000   0.000000   0.000000   0.000000   0.000000   0.000000
    33  N   -0.000007  -0.000092  -0.000017   0.000000   0.000000   0.000000
    34  H   -0.000126   0.000099   0.000015   0.000000   0.000000   0.000000
    35  C   -0.000006   0.000038   0.000000   0.000000   0.000000   0.000000
    36  H   -0.000004   0.000033   0.000000   0.000000   0.000000   0.000000
    37  H    0.000000   0.000002   0.000000   0.000000   0.000000   0.000000
    38  H    0.000000   0.000000   0.000000   0.000000   0.000000   0.000000
              25         26         27         28         29         30
     1  C    0.000000   0.000000   0.000000   0.000000   0.000000   0.000000
     2  H    0.000000   0.000000   0.000000   0.000000   0.000000   0.000000
     3  H    0.000000   0.000000   0.000000   0.000000   0.000000   0.000000
     4  H    0.000000   0.000000   0.000000   0.000000   0.000000   0.000000
     5  C    0.000000  -0.000003   0.000000   0.000000   0.000000   0.000000
     6  O    0.000000  -0.000006   0.000000   0.000000   0.000000   0.000000
     7  N    0.000000   0.000000   0.000000   0.000000   0.000000   0.000000
     8  H    0.000000   0.000000   0.000000   0.000000   0.000000   0.000000
     9  C    0.000000   0.000022   0.000004   0.000000  -0.000001   0.000001
    10  H    0.000000   0.000012   0.000000   0.000000   0.000000   0.000000
    11  C   -0.000005  -0.000844   0.000078   0.000019   0.000042  -0.000094
    12  H   -0.000001   0.005323  -0.000246   0.000017  -0.000037   0.000044
    13  H    0.000000   0.000231   0.000001   0.000001   0.000001  -0.000004
    14  C   -0.000097  -0.054771   0.005714  -0.000536   0.000062   0.000471
    15  H   -0.000006   0.002251  -0.000110   0.000006   0.000001   0.000004
    16  H    0.000023  -0.000581  -0.000162  -0.000001   0.000005   0.000008
    17  C   -0.005332   0.197797  -0.045605   0.000246   0.002671  -0.011290
    18  H    0.000905  -0.035411  -0.017164  -0.000125   0.000541   0.005038
    19  C   -0.016078  -0.054678  -0.007669   0.002917  -0.000255  -0.002095
    20  H    0.002820   0.003055  -0.000303  -0.000140   0.000014  -0.000046
    21  H   -0.001470   0.000633  -0.000290   0.000078  -0.000002   0.000133
    22  N    0.287839   0.004047  -0.029084  -0.011714   0.000386  -0.002330
    23  H   -0.007830  -0.000364  -0.000675  -0.000221  -0.000042   0.003113
    24  H   -0.009944  -0.000213   0.000714   0.000255  -0.000007   0.000157
    25  H    0.245137   0.003693   0.007482   0.014493   0.000237  -0.005022
    26  O    0.003693   8.467426   0.187380  -0.047458  -0.026736  -0.038991
    27  C    0.007482   0.187380   4.948199   0.383518   0.405325   0.382902
    28  H    0.014493  -0.047458   0.383518   0.579153  -0.025120  -0.049970
    29  H    0.000237  -0.026736   0.405325  -0.025120   0.401274  -0.019410
    30  H   -0.005022  -0.038991   0.382902  -0.049970  -0.019410   0.596036
    31  C    0.000000  -0.000003   0.000000   0.000000   0.000000   0.000000
    32  O    0.000000   0.000000   0.000000   0.000000   0.000000   0.000000
    33  N    0.000000  -0.000020   0.000001   0.000000   0.000000   0.000000
    34  H    0.000000  -0.000019   0.000001   0.000000   0.000000   0.000000
    35  C    0.000000   0.000000   0.000000   0.000000   0.000000   0.000000
    36  H    0.000000   0.000000   0.000000   0.000000   0.000000   0.000000
    37  H    0.000000   0.000000   0.000000   0.000000   0.000000   0.000000
    38  H    0.000000   0.000000   0.000000   0.000000   0.000000   0.000000
              31         32         33         34         35         36
     1  C    0.000009  -0.000039   0.000000   0.000000   0.000000   0.000000
     2  H   -0.000009   0.000000   0.000000   0.000000   0.000000   0.000000
     3  H   -0.000007  -0.000001   0.000000   0.000000   0.000000   0.000000
     4  H    0.000000   0.000000   0.000000   0.000000   0.000000   0.000000
     5  C    0.003960   0.000276  -0.000084  -0.000001   0.000001   0.000000
     6  O    0.000560  -0.000003  -0.000002   0.000002   0.000000   0.000000
     7  N   -0.037637  -0.005540   0.002922  -0.000042  -0.000053   0.000000
     8  H   -0.004588   0.019262   0.000747  -0.000022  -0.000020   0.000000
     9  C    0.371483  -0.077345  -0.121760   0.003212   0.003865   0.000025
    10  H   -0.038506   0.000690   0.002633   0.001179  -0.000154  -0.000004
    11  C   -0.056886   0.000430   0.016428  -0.003221  -0.000363  -0.000004
    12  H    0.003411  -0.000048  -0.000270  -0.000146   0.000004   0.000000
    13  H   -0.001891   0.000519   0.000799   0.000643  -0.000042   0.000000
    14  C   -0.002317   0.000220  -0.098275  -0.005725   0.002443   0.000065
    15  H    0.006222  -0.000403  -0.046045  -0.034065   0.002204   0.000290
    16  H    0.000175  -0.000016  -0.001904   0.005407   0.000021   0.000012
    17  C   -0.000484  -0.000001   0.004224   0.000331  -0.000106  -0.000010
    18  H    0.000015  -0.000001   0.000072   0.000102   0.000000   0.000000
    19  C   -0.000013   0.000000  -0.000007  -0.000126  -0.000006  -0.000004
    20  H    0.000005   0.000000  -0.000092   0.000099   0.000038   0.000033
    21  H    0.000002   0.000000  -0.000017   0.000015   0.000000   0.000000
    22  N    0.000000   0.000000   0.000000   0.000000   0.000000   0.000000
    23  H    0.000000   0.000000   0.000000   0.000000   0.000000   0.000000
    24  H    0.000000   0.000000   0.000000   0.000000   0.000000   0.000000
    25  H    0.000000   0.000000   0.000000   0.000000   0.000000   0.000000
    26  O   -0.000003   0.000000  -0.000020  -0.000019   0.000000   0.000000
    27  C    0.000000   0.000000   0.000001   0.000001   0.000000   0.000000
    28  H    0.000000   0.000000   0.000000   0.000000   0.000000   0.000000
    29  H    0.000000   0.000000   0.000000   0.000000   0.000000   0.000000
    30  H    0.000000   0.000000   0.000000   0.000000   0.000000   0.000000
    31  C    4.175638   0.604328   0.238302  -0.022058  -0.024571   0.004678
    32  O    0.604328   8.177657  -0.103456   0.002470   0.008294   0.000396
    33  N    0.238302  -0.103456   7.571783   0.322726   0.174165  -0.035485
    34  H   -0.022058   0.002470   0.322726   0.336868  -0.020250  -0.004271
    35  C   -0.024571   0.008294   0.174165  -0.020250   4.917817   0.394819
    36  H    0.004678   0.000396  -0.035485  -0.004271   0.394819   0.526551
    37  H   -0.004002   0.001659  -0.044347   0.003809   0.406558  -0.030928
    38  H   -0.002257   0.002203  -0.038638   0.000038   0.408788  -0.024801
              37         38
     1  C    0.000000   0.000000
     2  H    0.000000   0.000000
     3  H    0.000000   0.000000
     4  H    0.000000   0.000000
     5  C    0.000000   0.000000
     6  O    0.000000   0.000000
     7  N    0.000001  -0.000003
     8  H    0.000000  -0.000001
     9  C    0.000052  -0.000075
    10  H   -0.000002   0.000003
    11  C   -0.000047   0.000006
    12  H   -0.000001   0.000000
    13  H    0.000002   0.000000
    14  C    0.000331  -0.000111
    15  H   -0.001339   0.000102
    16  H   -0.000008   0.000001
    17  C    0.000001   0.000002
    18  H   -0.000002   0.000000
    19  C    0.000000   0.000000
    20  H    0.000002   0.000000
    21  H    0.000000   0.000000
    22  N    0.000000   0.000000
    23  H    0.000000   0.000000
    24  H    0.000000   0.000000
    25  H    0.000000   0.000000
    26  O    0.000000   0.000000
    27  C    0.000000   0.000000
    28  H    0.000000   0.000000
    29  H    0.000000   0.000000
    30  H    0.000000   0.000000
    31  C   -0.004002  -0.002257
    32  O    0.001659   0.002203
    33  N   -0.044347  -0.038638
    34  H    0.003809   0.000038
    35  C    0.406558   0.408788
    36  H   -0.030928  -0.024801
    37  H    0.497097  -0.028200
    38  H   -0.028200   0.457583
 Mulliken charges:
               1
     1  C   -0.572419
     2  H    0.201022
     3  H    0.191355
     4  H    0.225880
     5  C    0.736401
     6  O   -0.646961
     7  N   -0.818499
     8  H    0.431464
     9  C   -0.000141
    10  H    0.225264
    11  C   -0.348646
    12  H    0.288575
    13  H    0.177561
    14  C   -0.454194
    15  H    0.213336
    16  H    0.206204
    17  C    0.136884
    18  H    0.191274
    19  C   -0.229798
    20  H    0.247577
    21  H    0.267415
    22  N   -0.860733
    23  H    0.463776
    24  H    0.475604
    25  H    0.483156
    26  O   -0.611774
    27  C   -0.220011
    28  H    0.154583
    29  H    0.261053
    30  H    0.141345
    31  C    0.786440
    32  O   -0.631552
    33  N   -0.844401
    34  H    0.413047
    35  C   -0.273453
    36  H    0.168637
    37  H    0.199366
    38  H    0.225360
 Sum of Mulliken charges =   1.00000
 Mulliken charges with hydrogens summed into heavy atoms:
               1
     1  C    0.045839
     5  C    0.736401
     6  O   -0.646961
     7  N   -0.387035
     9  C    0.225123
    11  C    0.117490
    14  C   -0.034654
    17  C    0.328158
    19  C    0.285194
    22  N    0.561803
    26  O   -0.611774
    27  C    0.336971
    31  C    0.786440
    32  O   -0.631552
    33  N   -0.431354
    35  C    0.319910
 Electronic spatial extent (au):  <R**2>=           5103.7819
 Charge=              1.0000 electrons
 Dipole moment (field-independent basis, Debye):
    X=            -20.8517    Y=              2.2428    Z=              1.8985  Tot=             21.0577
 Quadrupole moment (field-independent basis, Debye-Ang):
   XX=              5.5730   YY=            -91.5720   ZZ=            -94.1711
   XY=             -4.2711   XZ=             -3.9763   YZ=            -12.5408
 Traceless Quadrupole moment (field-independent basis, Debye-Ang):
   XX=             65.6297   YY=            -31.5153   ZZ=            -34.1144
   XY=             -4.2711   XZ=             -3.9763   YZ=            -12.5408
 Octapole moment (field-independent basis, Debye-Ang**2):
  XXX=           -427.9735  YYY=             30.5355  ZZZ=              2.5615  XYY=            -50.7344
  XXY=            -54.9894  XXZ=             22.7517  XZZ=            -24.7567  YZZ=              1.0385
  YYZ=             11.9599  XYZ=            -10.2377
 Hexadecapole moment (field-independent basis, Debye-Ang**3):
 XXXX=          -1568.9307 YYYY=          -1952.5352 ZZZZ=           -231.8018 XXXY=            -93.9141
 XXXZ=            -49.8903 YYYX=             51.9641 YYYZ=            -62.1979 ZZZX=             -6.5792
 ZZZY=             -0.1498 XXYY=           -956.6379 XXZZ=           -666.7791 YYZZ=           -413.2857
 XXYZ=            -67.4465 YYXZ=             -9.1389 ZZXY=              6.2982
 N-N= 1.220956090176D+03 E-N=-4.251098881588D+03  KE= 7.783573870736D+02
 Calling FoFJK, ICntrl=      2127 FMM=F ISym2X=0 I1Cent= 0 IOpClX= 0 NMat=1 NMatS=1 NMatT=0.
 ***** Axes restored to original set *****
 -------------------------------------------------------------------
 Center     Atomic                   Forces (Hartrees/Bohr)
 Number     Number              X              Y              Z
 -------------------------------------------------------------------
      1        6          -0.011336154   -0.022808410   -0.008036821
      2        1           0.002350991    0.000908982    0.010999369
      3        1           0.011476226    0.000963478   -0.001341318
      4        1          -0.004978582    0.003863000   -0.003395351
      5        6          -0.035439208    0.034743918   -0.021743017
      6        8           0.031371691   -0.007100083    0.023723688
      7        7           0.015690532   -0.016290077    0.010272478
      8        1          -0.010682727   -0.004177359   -0.006385010
      9        6          -0.001189859    0.005901063   -0.002334717
     10        1           0.002659099    0.001106230   -0.000576837
     11        6          -0.007836641   -0.001080741   -0.004331254
     12        1           0.007450167   -0.006572989    0.004663923
     13        1          -0.001517192    0.001516589    0.001528383
     14        6           0.000674490    0.006914147   -0.043131713
     15        1          -0.007309632    0.020145800   -0.055432542
     16        1          -0.000094732   -0.001292897   -0.002327895
     17        6          -0.021346550    0.012535776    0.012086792
     18        1          -0.001684771    0.000150985    0.004199836
     19        6           0.004085136    0.005856461    0.032008508
     20        1          -0.004832549    0.001094750   -0.007590135
     21        1           0.004779926   -0.001296607   -0.007132969
     22        7          -0.006160701   -0.018727218   -0.002867191
     23        1          -0.003862042   -0.002574723   -0.006573485
     24        1           0.001279772    0.000200746   -0.007437969
     25        1           0.000786509   -0.009639531   -0.003591256
     26        8           0.028758705   -0.026051657   -0.021068268
     27        6          -0.008737265    0.016736040    0.024787386
     28        1          -0.008984067    0.007377897   -0.011569475
     29        1          -0.001081856    0.006817308   -0.001418452
     30        1           0.009215515    0.003241394   -0.007522494
     31        6           0.042148330    0.026256154    0.044516278
     32        8          -0.033513722   -0.010276715   -0.027135091
     33        7          -0.008637589   -0.033596347    0.022405414
     34        1           0.016638282   -0.005047547    0.057662665
     35        6          -0.004704082    0.019452148    0.000927314
     36        1          -0.006415731   -0.005268590   -0.003229500
     37        1           0.008761307   -0.001743218   -0.001297251
     38        1           0.002218974   -0.002238158    0.007687977
 -------------------------------------------------------------------
 Cartesian Forces:  Max     0.057662665 RMS     0.016346326
 -----------------------------------------------------------------------------------------------
                       Internal Coordinate Forces (Hartree/Bohr or radian)
  Cent   Atom   N1       Length/X         N2         Alpha/Y        N3         Beta/Z          J
 -----------------------------------------------------------------------------------------------
      1  C 
      2  H        1   0.010999(     1)
      3  H        1   0.011267(     2)      2  -0.005178(    38)
      4  H        1   0.006633(     3)      2   0.002540(    39)      3  -0.004537(    74)     0
      5  C        1  -0.015704(     4)      2   0.003477(    40)      3   0.006374(    75)     0
      6  O        5  -0.039757(     5)      1   0.008827(    41)      2  -0.000100(    76)     0
      7  N        5   0.011817(     6)      1  -0.004972(    42)      6   0.000369(    77)     0
      8  H        7  -0.012273(     7)      5   0.008726(    43)      6   0.001475(    78)     0
      9  C        7  -0.008018(     8)      5   0.014590(    44)      6   0.001084(    79)     0
     10  H        9  -0.002756(     9)      7  -0.002085(    45)      5   0.000166(    80)     0
     11  C        9   0.101535(    10)      7  -0.378218(    46)      5  -0.148767(    81)     0
     12  H       11  -0.010735(    11)      9  -0.001519(    47)      7   0.004202(    82)     0
     13  H       11  -0.001886(    12)      9  -0.002147(    48)      7  -0.002941(    83)     0
     14  C       11   0.014625(    13)      9   0.332626(    49)      7   0.044837(    84)     0
     15  H       14  -0.040224(    14)     11   0.029244(    50)      9  -0.080334(    85)     0
     16  H       14  -0.000672(    15)     11   0.004376(    51)      9   0.002839(    86)     0
     17  C       14   0.004129(    16)     11   0.009381(    52)      9  -0.012237(    87)     0
     18  H       17  -0.003052(    17)     14  -0.006888(    53)     11   0.000053(    88)     0
     19  C       17   0.024348(    18)     14  -0.080784(    54)     11  -0.022842(    89)     0
     20  H       19  -0.006328(    19)     17   0.011201(    55)     14  -0.006881(    90)     0
     21  H       19  -0.006921(    20)     17   0.007310(    56)     14   0.007488(    91)     0
     22  N       19   0.022847(    21)     17   0.085311(    57)     14   0.010927(    92)     0
     23  H       22  -0.001407(    22)     19   0.014743(    58)     17   0.003195(    93)     0
     24  H       22   0.001244(    23)     19   0.014102(    59)     17  -0.001691(    94)     0
     25  H       22  -0.006288(    24)     19   0.012917(    60)     17  -0.008245(    95)     0
     26  O       17   0.002169(    25)     14  -0.064150(    61)     11   0.020483(    96)     0
     27  C       26  -0.001487(    26)     17   0.105793(    62)     14  -0.053973(    97)     0
     28  H       27   0.010964(    27)     26   0.013076(    63)     17   0.019716(    98)     0
     29  H       27   0.006747(    28)     26  -0.000347(    64)     17  -0.003864(    99)     0
     30  H       27   0.007692(    29)     26   0.016140(    65)     17  -0.010290(   100)     0
     31  C        9   0.054409(    30)      7  -0.313360(    66)      5   0.158498(   101)     0
     32  O       31  -0.044053(    31)      9   0.009066(    67)      7  -0.006081(   102)     0
     33  N       31   0.003029(    32)      9   0.184084(    68)      7  -0.206441(   103)     0
     34  H       33  -0.045949(    33)     31   0.017811(    69)      9  -0.062519(   104)     0
     35  C       33  -0.007277(    34)     31  -0.011523(    70)      9   0.008395(   105)     0
     36  H       35   0.008524(    35)     33  -0.005137(    71)     31  -0.000923(   106)     0
     37  H       35   0.008643(    36)     33   0.004637(    72)     31   0.002351(   107)     0
     38  H       35   0.007787(    37)     33   0.005773(    73)     31  -0.000944(   108)     0
 -----------------------------------------------------------------------------------------------
 Internal  Forces:  Max     0.378217549 RMS     0.071294266

 GradGradGradGradGradGradGradGradGradGradGradGradGradGradGradGradGradGrad
 Berny optimization.
 Search for a local minimum.
 Step number   1 out of a maximum of  115
 All quantities printed in internal units (Hartrees-Bohrs-Radians)
 Second derivative matrix not updated -- first step.
 ITU=  0
     Eigenvalues ---    0.01183   0.01191   0.01201   0.01204   0.01295
     Eigenvalues ---    0.01300   0.01382   0.01696   0.01936   0.03032
[...]
    32  O    0.001309  -0.000015  -0.080549   0.000530   0.005801   0.000269
    33  N   -0.005478   0.004711  -0.126456  -0.000470   0.003868  -0.000028
    34  H    0.009015  -0.000488  -0.001671  -0.000438   0.000365  -0.000004
    35  C    0.000032  -0.000143   0.004050  -0.000196  -0.000093   0.000001
    36  H   -0.000001   0.000009  -0.000272   0.000029  -0.000010   0.000000
    37  H   -0.000027  -0.000025   0.000246  -0.000005   0.000010   0.000000
    38  H   -0.000007  -0.000006   0.000038  -0.000002   0.000001   0.000000
              13         14         15         16         17         18
     1  C   -0.000001  -0.000001   0.000000   0.000000   0.000000   0.000000
     2  H    0.000000   0.000000   0.000000   0.000000   0.000000   0.000000
     3  H   -0.000005   0.000000   0.000000   0.000000   0.000000   0.000000
     4  H    0.000000   0.000000   0.000000   0.000000   0.000000   0.000000
     5  C    0.000210  -0.000025  -0.000003   0.000001  -0.000006   0.000000
     6  O    0.000071  -0.000236  -0.000001   0.000059   0.000001   0.000000
     7  N    0.001268   0.004199   0.000009   0.000030  -0.000061  -0.000003
     8  H    0.000546  -0.000052   0.000004   0.000000   0.000002   0.000000
     9  C   -0.035167  -0.040685  -0.003561  -0.003060   0.003542   0.000020
    10  H    0.003624  -0.002309   0.000226   0.002759  -0.000085  -0.000003
    11  C    0.391002   0.314373  -0.031578  -0.037517  -0.038659  -0.003419
    12  H   -0.026375  -0.042191   0.003192  -0.000390  -0.002611   0.001218
    13  H    0.511315  -0.033365  -0.002773   0.003320  -0.003248   0.001577
    14  C   -0.033365   5.239316   0.391196   0.391357   0.326283  -0.048196
    15  H   -0.002773   0.391196   0.452941  -0.019537  -0.042232   0.002425
    16  H    0.003320   0.391357  -0.019537   0.495890  -0.038990   0.004213
    17  C   -0.003248   0.326283  -0.042232  -0.038990   4.838282   0.401020
    18  H    0.001577  -0.048196   0.002425   0.004213   0.401020   0.547297
    19  C   -0.000138  -0.048784  -0.001458  -0.003114   0.347959  -0.046902
    20  H    0.000046  -0.000523  -0.000130   0.000147  -0.029532   0.000588
    21  H   -0.000001  -0.003723   0.000960   0.001627  -0.031871   0.003813
    22  N    0.000000   0.003407   0.000199  -0.000166  -0.052908  -0.003366
    23  H   -0.000001  -0.000034   0.000007   0.000002  -0.000611   0.001901
    24  H    0.000000  -0.000034  -0.000007   0.000002   0.003287  -0.000178
    25  H    0.000000   0.000534  -0.000030   0.000022  -0.009304   0.000892
    26  O    0.000040  -0.041771   0.002187  -0.000155   0.186200  -0.044858
    27  C    0.000041  -0.002372   0.000049  -0.000651  -0.040010  -0.002483
    28  H   -0.000002  -0.001288  -0.000002   0.000294  -0.005264   0.006071
    29  H   -0.000001  -0.000171   0.000005  -0.000079   0.003863  -0.000143
    30  H    0.000084   0.003826  -0.000052  -0.000509  -0.003281  -0.000649
    31  C   -0.003122  -0.000606   0.001267   0.000174   0.000000  -0.000001
    32  O    0.003828  -0.008097   0.009960   0.000250   0.000332   0.000002
    33  N   -0.000006  -0.000160   0.000137  -0.000014   0.000002   0.000000
    34  H   -0.000012  -0.000015  -0.000006  -0.000002   0.000000   0.000000
    35  C   -0.000012   0.000003  -0.000001   0.000000   0.000000   0.000000
    36  H    0.000000   0.000001   0.000002   0.000000   0.000000   0.000000
    37  H    0.000000   0.000000  -0.000002   0.000000   0.000000   0.000000
    38  H    0.000000   0.000000   0.000000   0.000000   0.000000   0.000000
              19         20         21         22         23         24
     1  C    0.000000   0.000000   0.000000   0.000000   0.000000   0.000000
     2  H    0.000000   0.000000   0.000000   0.000000   0.000000   0.000000
     3  H    0.000000   0.000000   0.000000   0.000000   0.000000   0.000000
     4  H    0.000000   0.000000   0.000000   0.000000   0.000000   0.000000
     5  C    0.000000   0.000000   0.000000   0.000000   0.000000   0.000000
     6  O    0.000000   0.000000   0.000000   0.000000   0.000000   0.000000
     7  N    0.000000   0.000000   0.000000   0.000000   0.000000   0.000000
     8  H    0.000000   0.000000   0.000000   0.000000   0.000000   0.000000
     9  C   -0.000084  -0.000001  -0.000003   0.000000   0.000000   0.000000
    10  H    0.000002   0.000000  -0.000001   0.000000   0.000000   0.000000
    11  C    0.003511  -0.000048   0.000036  -0.000071  -0.000001   0.000001
    12  H    0.000086  -0.000004   0.000006   0.000000   0.000000   0.000000
    13  H   -0.000138   0.000046  -0.000001   0.000000  -0.000001   0.000000
    14  C   -0.048784  -0.000523  -0.003723   0.003407  -0.000034  -0.000034
    15  H   -0.001458  -0.000130   0.000960   0.000199   0.000007  -0.000007
    16  H   -0.003114   0.000147   0.001627  -0.000166   0.000002   0.000002
    17  C    0.347959  -0.029532  -0.031871  -0.052908  -0.000611   0.003287
    18  H   -0.046902   0.000588   0.003813  -0.003366   0.001901  -0.000178
    19  C    5.171383   0.395630   0.398447   0.129516  -0.015280  -0.017829
    20  H    0.395630   0.420425  -0.015144  -0.032448  -0.001752  -0.001153
    21  H    0.398447  -0.015144   0.423313  -0.038769   0.002548  -0.002527
    22  N    0.129516  -0.032448  -0.038769   6.975320   0.306015   0.312810
    23  H   -0.015280  -0.001752   0.002548   0.306015   0.269530  -0.010367
    24  H   -0.017829  -0.001153  -0.002527   0.312810  -0.010367   0.261383
    25  H   -0.022651   0.002453  -0.000293   0.284513  -0.007297  -0.008585
    26  O   -0.069293   0.002453   0.001535  -0.019908   0.000339   0.000282
    27  C    0.004837  -0.000078  -0.000111   0.000296  -0.000035   0.000004
    28  H    0.000096   0.000012   0.000016  -0.000087   0.000014  -0.000002
    29  H   -0.000102   0.000001   0.000001   0.000064  -0.000001  -0.000001
    30  H   -0.000387   0.000000  -0.000016  -0.000004   0.000001   0.000001
    31  C    0.000000  -0.000001   0.000000   0.000000   0.000000   0.000000
    32  O   -0.000038  -0.000003   0.000001   0.000000   0.000000   0.000000
    33  N    0.000000   0.000000   0.000000   0.000000   0.000000   0.000000
    34  H    0.000000   0.000000   0.000000   0.000000   0.000000   0.000000
    35  C    0.000000   0.000000   0.000000   0.000000   0.000000   0.000000
    36  H    0.000000   0.000000   0.000000   0.000000   0.000000   0.000000
    37  H    0.000000   0.000000   0.000000   0.000000   0.000000   0.000000
    38  H    0.000000   0.000000   0.000000   0.000000   0.000000   0.000000
              25         26         27         28         29         30
     1  C    0.000000   0.000000  -0.000003   0.000000   0.000000   0.000018
     2  H    0.000000   0.000000   0.000000   0.000000   0.000000   0.000000
     3  H    0.000000   0.000000   0.000000   0.000000   0.000000  -0.000001
     4  H    0.000000   0.000000   0.000000   0.000000   0.000000   0.000000
     5  C    0.000000   0.000000   0.000014   0.000003  -0.000001  -0.000021
     6  O    0.000000   0.000002  -0.000845  -0.000007   0.000002   0.003908
     7  N    0.000000   0.000000   0.000019   0.000001   0.000000  -0.000119
     8  H    0.000000   0.000000   0.000000   0.000000   0.000000  -0.000001
     9  C    0.000000  -0.000086  -0.000012   0.000002  -0.000003   0.000429
    10  H    0.000000  -0.000005   0.000017  -0.000003   0.000000   0.000081
    11  C   -0.000016   0.001665  -0.000602  -0.000108   0.000093  -0.003165
    12  H   -0.000002   0.000208  -0.001762   0.000157   0.000172  -0.001662
    13  H    0.000000   0.000040   0.000041  -0.000002  -0.000001   0.000084
    14  C    0.000534  -0.041771  -0.002372  -0.001288  -0.000171   0.003826
    15  H   -0.000030   0.002187   0.000049  -0.000002   0.000005  -0.000052
    16  H    0.000022  -0.000155  -0.000651   0.000294  -0.000079  -0.000509
    17  C   -0.009304   0.186200  -0.040010  -0.005264   0.003863  -0.003281
    18  H    0.000892  -0.044858  -0.002483   0.006071  -0.000143  -0.000649
    19  C   -0.022651  -0.069293   0.004837   0.000096  -0.000102  -0.000387
    20  H    0.002453   0.002453  -0.000078   0.000012   0.000001   0.000000
    21  H   -0.000293   0.001535  -0.000111   0.000016   0.000001  -0.000016
    22  N    0.284513  -0.019908   0.000296  -0.000087   0.000064  -0.000004
    23  H   -0.007297   0.000339  -0.000035   0.000014  -0.000001   0.000001
    24  H   -0.008585   0.000282   0.000004  -0.000002  -0.000001   0.000001
    25  H    0.240180   0.033054  -0.001245   0.000128  -0.000316   0.000111
    26  O    0.033054   8.566937   0.170063  -0.037557  -0.031619  -0.033536
    27  C   -0.001245   0.170063   4.892579   0.390912   0.400868   0.394732
    28  H    0.000128  -0.037557   0.390912   0.544292  -0.027561  -0.035389
    29  H   -0.000316  -0.031619   0.400868  -0.027561   0.474793  -0.024858
    30  H    0.000111  -0.033536   0.394732  -0.035389  -0.024858   0.481896
    31  C    0.000000   0.000000  -0.000002   0.000000   0.000000   0.000004
    32  O    0.000000   0.000000   0.000000   0.000000   0.000000   0.000000
    33  N    0.000000   0.000000   0.000000   0.000000   0.000000   0.000000
    34  H    0.000000   0.000000   0.000000   0.000000   0.000000   0.000000
    35  C    0.000000   0.000000   0.000000   0.000000   0.000000   0.000000
    36  H    0.000000   0.000000   0.000000   0.000000   0.000000   0.000000
    37  H    0.000000   0.000000   0.000000   0.000000   0.000000   0.000000
    38  H    0.000000   0.000000   0.000000   0.000000   0.000000   0.000000
              31         32         33         34         35         36
     1  C   -0.000010   0.000000  -0.000026   0.000012   0.000000   0.000000
     2  H    0.000008   0.000000  -0.000003   0.000034   0.000000   0.000000
     3  H   -0.000010   0.000000   0.000001   0.000000   0.000000   0.000000
     4  H    0.000000   0.000000   0.000000   0.000000   0.000000   0.000000
     5  C    0.002869  -0.000069   0.000080  -0.000185   0.000009   0.000000
     6  O    0.000548  -0.000001   0.000008  -0.000046   0.000000   0.000000
     7  N   -0.036633   0.001309  -0.005478   0.009015   0.000032  -0.000001
     8  H   -0.003101  -0.000015   0.004711  -0.000488  -0.000143   0.000009
     9  C    0.379704  -0.080549  -0.126456  -0.001671   0.004050  -0.000272
    10  H   -0.028833   0.000530  -0.000470  -0.000438  -0.000196   0.000029
    11  C   -0.054733   0.005801   0.003868   0.000365  -0.000093  -0.000010
    12  H    0.003582   0.000269  -0.000028  -0.000004   0.000001   0.000000
    13  H   -0.003122   0.003828  -0.000006  -0.000012  -0.000012   0.000000
    14  C   -0.000606  -0.008097  -0.000160  -0.000015   0.000003   0.000001
    15  H    0.001267   0.009960   0.000137  -0.000006  -0.000001   0.000002
    16  H    0.000174   0.000250  -0.000014  -0.000002   0.000000   0.000000
    17  C    0.000000   0.000332   0.000002   0.000000   0.000000   0.000000
    18  H   -0.000001   0.000002   0.000000   0.000000   0.000000   0.000000
    19  C    0.000000  -0.000038   0.000000   0.000000   0.000000   0.000000
    20  H   -0.000001  -0.000003   0.000000   0.000000   0.000000   0.000000
    21  H    0.000000   0.000001   0.000000   0.000000   0.000000   0.000000
    22  N    0.000000   0.000000   0.000000   0.000000   0.000000   0.000000
    23  H    0.000000   0.000000   0.000000   0.000000   0.000000   0.000000
    24  H    0.000000   0.000000   0.000000   0.000000   0.000000   0.000000
    25  H    0.000000   0.000000   0.000000   0.000000   0.000000   0.000000
    26  O    0.000000   0.000000   0.000000   0.000000   0.000000   0.000000
    27  C   -0.000002   0.000000   0.000000   0.000000   0.000000   0.000000
    28  H    0.000000   0.000000   0.000000   0.000000   0.000000   0.000000
    29  H    0.000000   0.000000   0.000000   0.000000   0.000000   0.000000
    30  H    0.000004   0.000000   0.000000   0.000000   0.000000   0.000000
    31  C    4.123171   0.596105   0.308433  -0.023983  -0.030446  -0.002590
    32  O    0.596105   8.188378  -0.102828   0.002425   0.006869   0.001302
    33  N    0.308433  -0.102828   7.316063   0.324465   0.187705  -0.045912
    34  H   -0.023983   0.002425   0.324465   0.307787  -0.020544   0.000761
    35  C   -0.030446   0.006869   0.187705  -0.020544   4.925361   0.405960
    36  H   -0.002590   0.001302  -0.045912   0.000761   0.405960   0.511830
    37  H   -0.003788   0.003042  -0.038604   0.002533   0.403147  -0.031314
    38  H    0.004214   0.000326  -0.036578  -0.003944   0.398964  -0.029352
              37         38
     1  C    0.000000   0.000000
     2  H    0.000000   0.000000
     3  H    0.000000   0.000000
     4  H    0.000000   0.000000
     5  C    0.000000   0.000000
     6  O    0.000000   0.000000
     7  N   -0.000027  -0.000007
     8  H   -0.000025  -0.000006
     9  C    0.000246   0.000038
    10  H   -0.000005  -0.000002
    11  C    0.000010   0.000001
    12  H    0.000000   0.000000
    13  H    0.000000   0.000000
    14  C    0.000000   0.000000
    15  H   -0.000002   0.000000
    16  H    0.000000   0.000000
    17  C    0.000000   0.000000
    18  H    0.000000   0.000000
    19  C    0.000000   0.000000
    20  H    0.000000   0.000000
    21  H    0.000000   0.000000
    22  N    0.000000   0.000000
    23  H    0.000000   0.000000
    24  H    0.000000   0.000000
    25  H    0.000000   0.000000
    26  O    0.000000   0.000000
    27  C    0.000000   0.000000
    28  H    0.000000   0.000000
    29  H    0.000000   0.000000
    30  H    0.000000   0.000000
    31  C   -0.003788   0.004214
    32  O    0.003042   0.000326
    33  N   -0.038604  -0.036578
    34  H    0.002533  -0.003944
    35  C    0.403147   0.398964
    36  H   -0.031314  -0.029352
    37  H    0.480568  -0.024017
    38  H   -0.024017   0.504344
 Mulliken charges:
               1
     1  C   -0.584336
     2  H    0.203953
     3  H    0.192046
     4  H    0.231605
     5  C    0.741301
     6  O   -0.604012
     7  N   -0.834480
     8  H    0.394962
     9  C   -0.039023
    10  H    0.240148
    11  C   -0.324243
    12  H    0.196516
    13  H    0.187260
    14  C   -0.399857
    15  H    0.236608
    16  H    0.204037
    17  C    0.187902
    18  H    0.179165
    19  C   -0.225408
    20  H    0.259061
    21  H    0.260158
    22  N   -0.864412
    23  H    0.455022
    24  H    0.462914
    25  H    0.487851
    26  O   -0.686176
    27  C   -0.204220
    28  H    0.165274
    29  H    0.204995
    30  H    0.218560
    31  C    0.767781
    32  O   -0.629129
    33  N   -0.788909
    34  H    0.403940
    35  C   -0.280665
    36  H    0.189558
    37  H    0.208237
    38  H    0.186019
 Sum of Mulliken charges =   1.00000
 Mulliken charges with hydrogens summed into heavy atoms:
               1
     1  C    0.043267
     5  C    0.741301
     6  O   -0.604012
     7  N   -0.439518
     9  C    0.201125
    11  C    0.059533
    14  C    0.040789
    17  C    0.367067
    19  C    0.293811
    22  N    0.541374
    26  O   -0.686176
    27  C    0.384609
    31  C    0.767781
    32  O   -0.629129
    33  N   -0.384969
    35  C    0.303149
 Electronic spatial extent (au):  <R**2>=           5369.1792
 Charge=              1.0000 electrons
 Dipole moment (field-independent basis, Debye):
    X=            -13.4059    Y=              2.3762    Z=              2.8954  Tot=             13.9193
 Quadrupole moment (field-independent basis, Debye-Ang):
   XX=             26.2117   YY=            -90.7240   ZZ=            -92.5522
   XY=            -17.8151   XZ=             -4.6956   YZ=             -7.6935
 Traceless Quadrupole moment (field-independent basis, Debye-Ang):
   XX=             78.5665   YY=            -38.3692   ZZ=            -40.1973
   XY=            -17.8151   XZ=             -4.6956   YZ=             -7.6935
 Octapole moment (field-independent basis, Debye-Ang**2):
  XXX=           -423.4835  YYY=             -8.4730  ZZZ=              5.9013  XYY=            -21.6530
  XXY=            105.2589  XXZ=             32.8192  XZZ=            -17.2012  YZZ=              6.6345
  YYZ=              7.7229  XYZ=            -19.8922
 Hexadecapole moment (field-independent basis, Debye-Ang**3):
 XXXX=          -1409.0377 YYYY=          -1996.2142 ZZZZ=           -224.8828 XXXY=           -480.0195
 XXXZ=           -169.3200 YYYX=            -18.5242 YYYZ=            -38.9655 ZZZX=            -10.8310
 ZZZY=              2.1799 XXYY=           -745.8779 XXZZ=           -705.9355 YYZZ=           -385.2651
 XXYZ=             -7.2904 YYXZ=             18.1038 ZZXY=            -12.4362
 N-N= 1.202585994623D+03 E-N=-4.215414159838D+03  KE= 7.781492220099D+02
 1\1\GINC-E09\POpt\RHF\6-31G(d)\C10H22N3O3(1+)\WISE\16-May-2016\1\\# op
 t=z-matrix HF/6-31G* scf=tight\\Title Card Required\\1,1\C\H,1,B1\H,1,
 B2,2,A1\H,1,B3,2,A2,3,D1,0\C,1,B4,2,109.47122063,3,119.99998525,0\O,5,
 B5,1,A3,2,119.5446926,0\N,5,B6,1,A4,6,D2,0\H,7,B7,5,A5,6,D3,0\C,7,B8,5
 ,A6,6,D4,0\H,9,B9,7,A7,5,D5,0\C,9,B10,7,A8,5,D6,0\H,11,B11,9,A9,7,D7,0
 \H,11,B12,9,A10,7,D8,0\C,11,B13,9,A11,7,D9,0\H,14,B14,11,A12,9,D10,0\H
 ,14,B15,11,A13,9,D11,0\C,14,B16,11,A14,9,D12,0\H,17,B17,14,A15,11,D13,
 0\C,17,B18,14,A16,11,D14,0\H,19,B19,17,A17,14,D15,0\H,19,B20,17,A18,14
 ,D16,0\N,19,B21,17,A19,14,D17,0\H,22,B22,19,A20,17,D18,0\H,22,B23,19,A
 21,17,D19,0\H,22,B24,19,A22,17,D20,0\O,17,B25,14,A23,11,D21,0\C,26,B26
 ,17,A24,14,D22,0\H,27,B27,26,A25,17,D23,0\H,27,B28,26,A26,17,D24,0\H,2
 7,B29,26,A27,17,D25,0\C,9,B30,7,A28,5,D26,0\O,31,B31,9,A29,7,D27,0\N,3
 1,B32,9,A30,7,D28,0\H,33,B33,31,A31,9,D29,0\C,33,B34,31,A32,9,D30,0\H,
 35,B35,33,A33,31,D31,0\H,35,B36,33,A34,31,D32,0\H,35,B37,33,A35,31,D33
 ,0\\B1=1.08481914\B2=1.08541443\B3=1.0789369\B4=1.51134825\B5=1.200145
 08\B6=1.36670052\B7=0.99645682\B8=1.45039346\B9=1.08386278\B10=1.53581
 791\B11=1.08103175\B12=1.08510918\B13=1.53269016\B14=1.08266483\B15=1.
 08631128\B16=1.53445572\B17=1.09069182\B18=1.5257988\B19=1.07919145\B2
 0=1.07989159\B21=1.50775583\B22=1.00987174\B23=1.0093941\B24=1.0147047
 2\B25=1.40316306\B26=1.41562633\B27=1.08509988\B28=1.07908727\B29=1.08
 072252\B30=1.53228052\B31=1.20445687\B32=1.34085925\B33=0.99405809\B34
 =1.45178313\B35=1.08359175\B36=1.07984336\B37=1.08083493\A1=107.924583
 7\A2=109.90801788\A3=123.28079996\A4=115.31067053\A5=118.26551322\A6=1
 20.17335497\A7=105.94398639\A8=112.79929415\A9=106.94525502\A10=109.66
 570885\A11=112.76831551\A12=108.12586395\A13=110.68612652\A14=114.1351
 7799\A15=110.25741836\A16=109.31941364\A17=112.98050317\A18=110.613249
 13\A19=108.43957632\A20=111.93356492\A21=112.7984593\A22=107.07536847\
 A23=115.08288231\A24=118.06980127\A25=110.55571885\A26=106.43494138\A2
 7=111.39368815\A28=110.97114887\A29=120.73902531\A30=116.07422521\A31=
 118.41540378\A32=121.6271917\A33=111.57646792\A34=109.81710536\A35=108
 .57059635\D1=-119.77249306\D2=181.03615954\D3=165.54024342\D4=5.811474
 11\D5=-44.21448246\D6=74.06071646\D7=-37.43602104\D8=79.05275512\D9=20
 1.49842867\D10=-68.9816345\D11=47.91125744\D12=168.69839598\D13=27.518
 35136\D14=-212.454417\D15=-70.70017841\D16=53.1068643\D17=-190.8067166
 2\D18=71.4385956\D19=193.27906371\D20=-46.15776041\D21=-96.63934943\D2
 2=64.00122805\D23=54.89250221\D24=-186.42058843\D25=-67.38619357\D26=2
 00.52195115\D27=-143.98304672\D28=37.1184108\D29=5.98422144\D30=-186.0
 4883241\D31=289.4618367\D32=49.95743593\D33=169.16695618\\Version=AM64
 L-G09RevD.01\State=1-A\HF=-779.2430687\RMSD=4.317e-09\RMSF=4.318e-04\D
 ipole=0.2107006,-2.529107,-4.8527003\Quadrupole=-29.7297316,-11.162921
 8,40.8926534,11.2991365,8.9227504,35.1022982\PG=C01 [X(C10H22N3O3)]\\@


 IT IS BETTER TO THINK YOU ARE HALF DRY THAN TO KNOW YOU
 ARE ALL WET.  -- SNOOPY
 Job cpu time:       0 days  8 hours 14 minutes  2.1 seconds.
 File lengths (MBytes):  RWF=     38 Int=      0 D2E=      0 Chk=      7 Scr=      1
 Normal termination of Gaussian 09 at Mon May 16 01:49:00 2016.
