 Entering Gaussian System, Link 0=/programs/g09/g09
 Input=/scratch2/Wise/temp/temp_05162016/lysine_OCH3_q.com
 Output=/scratch2/Wise/temp/temp_05162016/lysine_OCH3_q.log
 Initial command:
 /programs/g09/l1.exe "/tmp/Wise/lysine_OCH3_q/Gau-20013.inp" -scrdir="/tmp/Wise/lysine_OCH3_q/"
 Entering Link 1 = /programs/g09/l1.exe PID=     20014.
  
 Copyright (c) 1988,1990,1992,1993,1995,1998,2003,2009,2013,
            Gaussian, Inc.  All Rights Reserved.
  
 This is part of the Gaussian(R) 09 program.  It is based on
 the Gaussian(R) 03 system (copyright 2003, Gaussian, Inc.),
 the Gaussian(R) 98 system (copyright 1998, Gaussian, Inc.),
 the Gaussian(R) 94 system (copyright 1995, Gaussian, Inc.),
 the Gaussian 92(TM) system (copyright 1992, Gaussian, Inc.),
 the Gaussian 90(TM) system (copyright 1990, Gaussian, Inc.),
 the Gaussian 88(TM) system (copyright 1988, Gaussian, Inc.),
 the Gaussian 86(TM) system (copyright 1986, Carnegie Mellon
 University), and the Gaussian 82(TM) system (copyright 1983,
 Carnegie Mellon University). Gaussian is a federally registered
 trademark of Gaussian, Inc.
  
 This software contains proprietary and confidential information,
 including trade secrets, belonging to Gaussian, Inc.
  
 This software is provided under written license and may be
 used, copied, transmitted, or stored only in accord with that
 written license.
  
 The following legend is applicable only to US Government
 contracts under FAR:
  
                    RESTRICTED RIGHTS LEGEND
  
 Use, reproduction and disclosure by the US Government is
 subject to restrictions as set forth in subparagraphs (a)
 and (c) of the Commercial Computer Software - Restricted
 Rights clause in FAR 52.227-19.
  
 Gaussian, Inc.
 340 Quinnipiac St., Bldg. 40, Wallingford CT 06492
  
  
 ---------------------------------------------------------------
 Warning -- This program may not be used in any manner that
 competes with the business of Gaussian, Inc. or will provide
 assistance to any competitor of Gaussian, Inc.  The licensee
 of this program is prohibited from giving any competitor of
 Gaussian, Inc. access to this program.  By using this program,
 the user acknowledges that Gaussian, Inc. is engaged in the
 business of creating and licensing software in the field of
 computational chemistry and represents and warrants to the
 licensee that it is not a competitor of Gaussian, Inc. and that
 it will not use this program in any manner prohibited above.
 ---------------------------------------------------------------
  

 Cite this work as:
 Gaussian 09, Revision D.01,
 M. J. Frisch, G. W. Trucks, H. B. Schlegel, G. E. Scuseria, 
 M. A. Robb, J. R. Cheeseman, G. Scalmani, V. Barone, B. Mennucci, 
 G. A. Petersson, H. Nakatsuji, M. Caricato, X. Li, H. P. Hratchian, 
 A. F. Izmaylov, J. Bloino, G. Zheng, J. L. Sonnenberg, M. Hada, 
 M. Ehara, K. Toyota, R. Fukuda, J. Hasegawa, M. Ishida, T. Nakajima, 
 Y. Honda, O. Kitao, H. Nakai, T. Vreven, J. A. Montgomery, Jr., 
 J. E. Peralta, F. Ogliaro, M. Bearpark, J. J. Heyd, E. Brothers, 
 K. N. Kudin, V. N. Staroverov, T. Keith, R. Kobayashi, J. Normand, 
 K. Raghavachari, A. Rendell, J. C. Burant, S. S. Iyengar, J. Tomasi, 
 M. Cossi, N. Rega, J. M. Millam, M. Klene, J. E. Knox, J. B. Cross, 
 V. Bakken, C. Adamo, J. Jaramillo, R. Gomperts, R. E. Stratmann, 
 O. Yazyev, A. J. Austin, R. Cammi, C. Pomelli, J. W. Ochterski, 
 R. L. Martin, K. Morokuma, V. G. Zakrzewski, G. A. Voth, 
 P. Salvador, J. J. Dannenberg, S. Dapprich, A. D. Daniels, 
 O. Farkas, J. B. Foresman, J. V. Ortiz, J. Cioslowski, 
 and D. J. Fox, Gaussian, Inc., Wallingford CT, 2013.
 
 ******************************************
 Gaussian 09:  AM64L-G09RevD.01 24-Apr-2013
                16-May-2016 
 ******************************************
 %mem=8GB
 %nproc=8
 Will use up to    8 processors via shared memory.
 --------------------------------------------
 # HF/6-31G* scf=tight iop(6/33=2) pop=chelpg
 --------------------------------------------
 1/38=1/1;
 2/12=2,17=6,18=5,40=1/2;
 3/5=1,6=6,7=1,11=9,16=1,25=1,30=1/1,2,3;
 4//1;
 5/5=2,32=2,38=5/2;
 6/7=2,8=2,9=2,10=2,15=8,20=3,28=1,33=2/1,2;
 99/5=1,9=1/99;
 -------------------
 Title Card Required
 -------------------
 Symbolic Z-matrix:
 Charge =  1 Multiplicity = 1
 C
 H                    1    B1
 H                    1    B2       2    A1
 H                    1    B3       2    A2       3    D1       0
 C                    1    B4       4    A3       3    D2       0
 O                    5    B5       1    A4       4    D3       0
 N                    5    B6       1    A5       6    D4       0
 H                    7    B7       5    A6       1    D5       0
 C                    7    B8       5    A7       1    D6       0
 H                    9    B9       7    A8       5    D7       0
 C                    9    B10      7    A9       5    D8       0
 H                    11   B11      9    A10      7    D9       0
 H                    11   B12      9    A11      7    D10      0
 C                    11   B13      9    A12      7    D11      0
 H                    14   B14      11   A13      9    D12      0
 H                    14   B15      11   A14      9    D13      0
 C                    14   B16      11   A15      9    D14      0
 H                    17   B17      14   A16      11   D15      0
 C                    17   B18      14   A17      11   D16      0
 H                    19   B19      17   A18      14   D17      0
 H                    19   B20      17   A19      14   D18      0
 N                    19   B21      17   A20      14   D19      0
 H                    22   B22      19   A21      17   D20      0
 H                    22   B23      19   A22      17   D21      0
 H                    22   B24      19   A23      17   D22      0
 O                    17   B25      14   A24      11   D23      0
 C                    26   B26      17   A25      14   D24      0
 H                    27   B27      26   A26      17   D25      0
 H                    27   B28      26   A27      17   D26      0
 H                    27   B29      26   A28      17   D27      0
 C                    9    B30      7    A29      5    D28      0
 O                    31   B31      9    A30      7    D29      0
 N                    31   B32      9    A31      7    D30      0
 H                    33   B33      31   A32      9    D31      0
 C                    33   B34      31   A33      9    D32      0
 H                    35   B35      33   A34      31   D33      0
 H                    35   B36      33   A35      31   D34      0
 H                    35   B37      33   A36      31   D35      0
       Variables:
  B1                    1.08482                  
  B2                    1.08541                  
  B3                    1.07894                  
  B4                    1.51135                  
  B5                    1.20015                  
  B6                    1.3667                   
  B7                    0.99646                  
  B8                    1.45039                  
  B9                    1.08386                  
  B10                   1.53582                  
  B11                   1.08103                  
  B12                   1.08511                  
  B13                   1.53269                  
  B14                   1.08266                  
  B15                   1.08631                  
  B16                   1.53446                  
  B17                   1.09069                  
  B18                   1.5258                   
  B19                   1.07919                  
  B20                   1.07989                  
  B21                   1.50776                  
  B22                   1.00987                  
  B23                   1.00939                  
  B24                   1.01471                  
  B25                   1.40316                  
  B26                   1.41563                  
  B27                   1.0851                   
  B28                   1.07909                  
  B29                   1.08072                  
  B30                   1.53228                  
  B31                   1.20446                  
  B32                   1.34086                  
  B33                   0.99406                  
  B34                   1.45178                  
  B35                   1.08359                  
  B36                   1.07984                  
  B37                   1.08084                  
  A1                  107.92456                  
  A2                  109.90801                  
  A3                  109.43732                  
  A4                  123.28078                  
  A5                  115.31072                  
  A6                  118.26552                  
  A7                  120.17339                  
  A8                  105.94396                  
  A9                  112.79929                  
  A10                 106.94526                  
  A11                 109.66576                  
  A12                 112.76833                  
  A13                 108.12586                  
  A14                 110.68614                  
  A15                 114.13519                  
  A16                 110.25742                  
  A17                 109.31942                  
  A18                 112.98059                  
  A19                 110.61324                  
  A20                 108.43961                  
  A21                 111.93353                  
  A22                 112.7985                   
  A23                 107.07535                  
  A24                 115.0829                   
  A25                 118.06982                  
  A26                 110.55572                  
  A27                 106.43492                  
  A28                 111.39372                  
  A29                 110.97114                  
  A30                 120.73903                  
  A31                 116.07426                  
  A32                 118.41542                  
  A33                 121.62723                  
  A34                 111.57647                  
  A35                 109.8171                   
  A36                 108.57061                  
  D1                 -119.77254                  
  D2                 -121.15364                  
  D3                   -0.96998                  
  D4                 -178.96383                  
  D5                  -15.47462                  
  D6                 -175.20337                  
  D7                  -44.2145                   
  D8                   74.06071                  
  D9                  -37.43601                  
  D10                  79.05271                  
  D11                -158.50155                  
  D12                 -68.98165                  
  D13                  47.91124                  
  D14                 168.69837                  
  D15                  27.51836                  
  D16                 147.54554                  
  D17                 -70.70013                  
  D18                  53.10689                  
  D19                 169.19328                  
  D20                  71.43858                  
  D21                -166.7209                   
  D22                 -46.1577                   
  D23                 -96.63933                  
  D24                  64.00119                  
  D25                  54.89258                  
  D26                 173.57942                  
  D27                 -67.38617                  
  D28                -159.47808                  
  D29                -143.9831                   
  D30                  37.11845                  
  D31                   5.98419                  
  D32                 173.95113                  
  D33                 -70.53817                  
  D34                  49.95743                  
  D35                 169.16693                  
 
                          Input orientation:                          
 ---------------------------------------------------------------------
 Center     Atomic      Atomic             Coordinates (Angstroms)
 Number     Number       Type             X           Y           Z
 ---------------------------------------------------------------------
      1          6           0        0.000000    0.000000    0.000000
      2          1           0        0.000000    0.000000    1.084820
      3          1           0        1.032731    0.000000   -0.334052
      4          1           0       -0.503738    0.880555   -0.367390
      5          6           0       -0.712455   -1.234012   -0.503782
      6          8           0       -1.696365   -1.192490   -1.189746
      7          7           0       -0.171503   -2.424370   -0.105931
      8          1           0        0.751438   -2.421185    0.269696
      9          6           0       -0.707171   -3.673786   -0.611561
     10          1           0       -1.785569   -3.577437   -0.561224
     11          6           0       -0.315427   -3.941477   -2.072250
     12          1           0       -0.335289   -2.989126   -2.583389
     13          1           0        0.701736   -4.317044   -2.114585
     14          6           0       -1.258072   -4.929951   -2.767576
     15          1           0       -1.106020   -5.907149   -2.326978
     16          1           0       -2.295375   -4.659974   -2.590980
     17          6           0       -1.068659   -5.013942   -4.287979
     18          1           0       -0.042094   -4.760267   -4.555232
     19          6           0       -1.372351   -6.433805   -4.756829
     20          1           0       -0.622588   -7.147626   -4.451919
     21          1           0       -2.345146   -6.748927   -4.409648
     22          7           0       -1.442713   -6.433917   -6.262942
     23          1           0       -0.532247   -6.314138   -6.683116
     24          1           0       -1.846319   -7.280745   -6.635581
     25          1           0       -2.011596   -5.638840   -6.534697
     26          8           0       -1.951948   -4.226341   -5.041868
     27          6           0       -1.881354   -2.820098   -4.895256
     28          1           0       -0.872444   -2.467617   -5.083141
     29          1           0       -2.549600   -2.402360   -5.632394
     30          1           0       -2.198421   -2.510083   -3.909700
     31          6           0       -0.330142   -4.842775    0.304517
     32          8           0       -0.079687   -5.928106   -0.153793
     33          7           0       -0.322586   -4.582145    1.619779
     34          1           0       -0.643451   -3.693107    1.927692
     35          6           0       -0.110320   -5.629692    2.602257
     36          1           0       -0.960578   -6.298828    2.661333
     37          1           0        0.764369   -6.205969    2.339793
     38          1           0        0.045872   -5.169596    3.567721
 ---------------------------------------------------------------------
                    Distance matrix (angstroms):
                    1          2          3          4          5
     1  C    0.000000
     2  H    1.084820   0.000000
     3  H    1.085414   1.754916   0.000000
     4  H    1.078937   1.771452   1.771222   0.000000
     5  C    1.511348   2.134018   2.144124   2.129215   0.000000
     6  O    2.390645   3.077878   3.098743   2.529060   1.200145
     7  N    2.432736   2.706450   2.716577   3.331857   1.366700
     8  H    2.549418   2.662935   2.511130   3.589266   2.037310
     9  C    3.790884   4.107859   4.074429   4.565417   2.442160
    10  H    4.037485   4.323861   4.559877   4.642667   2.578084
    11  C    4.464186   5.059825   4.513768   5.118008   3.154060
    12  H    3.964996   4.743738   3.983198   4.462450   2.747262
    13  H    4.858063   5.418994   4.681530   5.614347   3.754958
    14  C    5.791946   6.381858   5.956025   6.331816   4.368344
    15  H    6.444573   6.910720   6.590935   7.090533   5.031615
    16  H    5.804936   6.363616   6.155109   6.233119   4.312684
    17  C    6.683442   7.426211   6.722275   7.101777   5.360494
    18  H    6.588782   7.380522   6.452422   7.040597   5.412773
    19  C    8.118165   8.797843   8.169407   8.574469   6.749942
    20  H    8.443682   9.062652   8.413410   9.008285   7.111027
    21  H    8.395994   9.013151   8.577211   8.828342   6.952392
    22  N    9.094018   9.872503   9.092571   9.441436   7.793602
    23  H    9.209542  10.024592   9.090000   9.573547   8.001520
    24  H   10.022429  10.771385  10.050246  10.377840   8.686058
    25  H    8.862578   9.690204   8.916974   9.100100   7.580383
    26  O    6.862397   7.694697   6.995270   7.073079   5.575357
    27  C    5.954492   6.874137   6.103231   6.007848   4.813216
    28  H    5.717396   6.700301   5.680904   5.795214   4.745304
    29  H    6.632922   7.575801   6.832046   6.533250   5.571607
    30  H    5.139973   6.006563   5.433794   5.188096   3.928961
    31  C    4.863558   4.916334   5.071259   5.765250   3.717887
    32  O    5.930635   6.056645   6.034269   6.825196   4.749464
    33  N    4.870708   4.624532   5.162402   5.815733   3.983906
    34  H    4.215337   3.842330   4.643717   5.119112   3.458898
    35  C    6.203011   5.831657   6.451504   7.166373   5.415907
    36  H    6.905116   6.563789   7.254022   7.805473   5.977614
    37  H    6.676297   6.377560   6.762804   7.691278   5.915005
    38  H    6.281358   5.735122   6.551522   7.238197   5.713232
                    6          7          8          9         10
     6  O    0.000000
     7  N    2.239953   0.000000
     8  H    3.103450   0.996457   0.000000
     9  C    2.733063   1.450394   2.114986   0.000000
    10  H    2.467989   2.035206   2.909253   1.083863   0.000000
    11  C    3.200427   2.487718   2.989013   1.535818   2.139402
    12  H    2.650032   2.546286   3.105419   2.120180   2.557063
    13  H    4.045868   2.894728   3.046563   2.158213   3.024340
    14  C    4.080473   3.813519   4.422337   2.555356   2.641124
    15  H    4.885674   4.235106   4.727030   2.844231   3.001205
    16  H    3.787573   3.960331   4.741172   2.722693   2.356204
    17  C    4.959491   5.000029   5.550454   3.929725   4.057857
    18  H    5.176113   5.026872   5.420418   4.144311   4.515627
    19  C    6.348263   6.256872   6.773297   5.024282   5.092414
    20  H    6.874476   6.434302   6.820619   5.179100   5.407059
    21  H    6.454663   6.476766   7.086215   5.154117   5.018151
    22  N    7.298919   7.456624   7.974439   6.332256   6.386440
    23  H    7.600234   7.649823   8.071216   6.623129   6.821869
    24  H    8.169851   8.308172   8.834394   7.113131   7.114492
    25  H    6.959734   7.419420   8.017944   6.375461   6.323199
    26  O    4.910033   5.548024   6.227327   4.634913   4.530445
    27  C    4.051436   5.100768   5.810977   4.523001   4.400746
    28  H    4.178914   5.026511   5.593926   4.634349   4.744811
    29  H    4.682832   6.016447   6.762535   5.497257   5.261303
    30  H    3.063701   4.310963   5.116339   3.802072   3.538641
    31  C    4.174202   2.458112   2.652382   1.532280   2.113966
    32  O    5.110078   3.505265   3.628857   2.384375   2.932861
    33  N    4.611991   2.767109   2.765140   2.439651   2.811856
    34  H    4.132811   2.442959   2.512459   2.540125   2.740897
    35  C    6.048437   4.196679   4.059309   3.809255   4.126236
    36  H    6.437924   4.826158   4.866933   4.203200   4.297843
    37  H    6.606650   4.599773   4.313938   4.157868   4.671966
    38  H    6.440982   4.591213   4.350696   4.502323   4.789294
                   11         12         13         14         15
    11  C    0.000000
    12  H    1.081032   0.000000
    13  H    1.085110   1.748875   0.000000
    14  C    1.532690   2.156909   2.154739   0.000000
    15  H    2.133961   3.028966   2.416925   1.082664   0.000000
    16  H    2.169219   2.575602   3.054051   1.086311   1.743476
    17  C    2.574294   2.746513   2.888529   1.534456   2.155165
    18  H    2.628750   2.666659   2.589689   2.168665   2.722571
    19  C    3.812577   4.202993   3.970386   2.496350   2.500494
    20  H    4.004568   4.568049   3.902456   2.856385   2.507561
    21  H    4.179110   4.637979   4.523810   2.680821   2.565450
    22  N    5.004491   5.160629   5.127249   3.809671   3.985305
    23  H    5.190049   5.282259   5.136397   4.215951   4.412572
    24  H    5.858185   6.092739   5.976246   4.564398   4.582452
    25  H    5.066701   5.044187   5.352261   3.906599   4.312418
    26  O    3.402644   3.191929   3.952120   2.479705   3.303232
    27  C    3.417453   2.786327   4.079869   3.060552   4.089875
    28  H    3.398234   2.609457   3.835459   3.402005   4.413771
    29  H    4.476052   3.813647   5.158700   4.032858   5.029239
    30  H    2.995126   2.336631   3.859851   2.836276   3.903640
    31  C    2.541962   3.431624   2.682018   3.210359   2.942727
    32  O    2.771776   3.821763   2.655343   3.035913   2.403442
    33  N    3.747211   4.494941   3.881365   4.499443   4.236308
    34  H    4.021047   4.576068   4.305674   4.894189   4.818524
    35  C    4.974249   5.823584   4.962971   5.535529   5.036443
    36  H    5.327300   6.233155   5.431404   5.606726   5.005778
    37  H    5.075432   5.982896   4.838744   5.639478   5.036507
    38  H    5.783432   6.537269   5.783217   6.472533   6.051307
                   16         17         18         19         20
    16  H    0.000000
    17  C    2.123660   0.000000
    18  H    2.990923   1.090693   0.000000
    19  C    2.947771   1.525798   2.147313   0.000000
    20  H    3.528417   2.185970   2.459092   1.079192   0.000000
    21  H    2.770155   2.157405   3.046311   1.079892   1.768602
    22  N    4.166199   2.461042   2.771121   1.507756   2.112295
    23  H    4.752942   2.777576   2.680047   2.104917   2.383507
    24  H    4.840340   3.354757   3.733081   2.114631   2.506715
    25  H    4.073280   2.515427   2.927304   2.049736   2.922968
    26  O    2.512536   1.403163   2.041920   2.300017   3.263303
    27  C    2.977624   2.417066   2.694948   3.652002   4.528635
    28  H    3.611375   2.674799   2.494877   4.010864   4.728991
    29  H    3.796268   3.289529   3.606604   4.290114   5.255897
    30  H    2.523976   2.772862   3.182732   4.098244   4.927885
    31  C    3.504205   4.654645   4.868977   5.406920   5.293538
    32  O    3.529492   4.348017   4.553892   4.807770   4.500651
    33  N    4.650639   5.970316   6.183945   6.722483   6.598274
    34  H    4.907349   6.368671   6.597633   7.261235   7.254900
    35  C    5.717038   6.983760   7.210423   7.509691   7.233806
    36  H    5.661653   7.067924   7.435697   7.430807   7.171684
    37  H    6.005385   6.979132   7.090967   7.414818   6.995550
    38  H    6.608385   7.935895   8.133736   8.538601   8.286982
                   21         22         23         24         25
    21  H    0.000000
    22  N    2.085261   0.000000
    23  H    2.940118   1.009871   0.000000
    24  H    2.342315   1.009393   1.631985   0.000000
    25  H    2.420616   1.014705   1.632951   1.653284   0.000000
    26  O    2.630161   2.573662   3.011335   3.446805   2.056027
    27  C    3.985801   3.888786   4.150282   4.788249   3.263438
    28  H    4.577341   4.177161   4.179877   5.150214   3.668969
    29  H    4.519906   4.228031   4.525012   5.029874   3.402705
    30  H    4.270746   4.637382   4.993876   5.505780   4.088353
    31  C    5.469643   6.848435   7.143722   7.510489   7.087725
    32  O    4.890639   6.279761   6.556363   6.853044   6.673221
    33  N    6.718608   8.174414   8.484210   8.817890   8.394334
    34  H    7.238486   8.673947   9.001565   9.362034   8.790320
    35  C    7.444054   9.000767   9.320120   9.543444   9.332677
    36  H    7.219307   8.938310   9.354273   9.390491   9.279396
    37  H    7.451096   8.884268   9.116238   9.408942   9.315803
    38  H    8.476418  10.022791  10.330724  10.589840  10.320475
                   26         27         28         29         30
    26  O    0.000000
    27  C    1.415626   0.000000
    28  H    2.064011   1.085100   0.000000
    29  H    2.008187   1.079088   1.766010   0.000000
    30  H    2.070771   1.080722   1.771152   1.761421   0.000000
    31  C    5.620861   5.790951   5.912894   6.791798   5.166385
    32  O    5.504058   5.948713   6.074695   6.967526   5.502613
    33  N    6.867239   6.926778   7.050015   7.893356   6.195752
    34  H    7.111348   6.989075   7.120817   7.902805   6.155698
    35  C    7.987092   8.200188   8.345352   9.174707   7.516496
    36  H    8.038490   8.369673   8.640765   9.300181   7.685396
    37  H    8.110871   8.414862   8.470796   9.434278   7.841802
    38  H    8.888535   8.992014   9.109413   9.951693   8.247526
                   31         32         33         34         35
    31  C    0.000000
    32  O    1.204457   0.000000
    33  N    1.340859   2.239680   0.000000
    34  H    2.013603   3.105741   0.994059   0.000000
    35  C    2.438682   2.772327   1.451783   2.118875   0.000000
    36  H    2.841148   2.972934   2.106862   2.725542   1.083591
    37  H    2.683021   2.647189   2.082473   2.909684   1.079843
    38  H    3.301015   3.800101   2.067689   2.311900   1.080835
                   36         37         38
    36  H    0.000000
    37  H    1.757114   0.000000
    38  H    1.763418   1.760145   0.000000
 Stoichiometry    C10H22N3O3(1+)
 Framework group  C1[X(C10H22N3O3)]
 Deg. of freedom   108
 Full point group                 C1      NOp   1
 Largest Abelian subgroup         C1      NOp   1
 Largest concise Abelian subgroup C1      NOp   1
                         Standard orientation:                         
 ---------------------------------------------------------------------
 Center     Atomic      Atomic             Coordinates (Angstroms)
 Number     Number       Type             X           Y           Z
 ---------------------------------------------------------------------
      1          6           0       -3.141908    3.115017    0.599316
      2          1           0       -4.148442    2.783979    0.366642
      3          1           0       -3.028164    3.105206    1.678709
      4          1           0       -2.987970    4.114760    0.223920
      5          6           0       -2.143034    2.178299   -0.040202
      6          8           0       -1.332974    2.533375   -0.851419
      7          7           0       -2.232864    0.872118    0.351831
      8          1           0       -2.757749    0.660639    1.172013
      9          6           0       -1.260917   -0.097740   -0.115434
     10          1           0       -1.133670    0.094749   -1.174450
     11          6           0        0.105861    0.052335    0.568767
     12          1           0        0.278201    1.111514    0.699418
     13          1           0        0.072447   -0.400147    1.554468
     14          6           0        1.247376   -0.568712   -0.243872
     15          1           0        1.123348   -1.644177   -0.231456
     16          1           0        1.193936   -0.254923   -1.282502
     17          6           0        2.649033   -0.204716    0.263494
     18          1           0        2.620546    0.005767    1.333305
     19          6           0        3.597493   -1.372165    0.007473
     20          1           0        3.401268   -2.221711    0.643415
     21          1           0        3.561329   -1.670994   -1.029619
     22          7           0        5.008322   -0.905060    0.261842
     23          1           0        5.186754   -0.762033    1.245481
     24          1           0        5.702563   -1.548888   -0.088001
     25          1           0        5.113339   -0.008325   -0.201261
     26          8           0        3.263524    0.866092   -0.403317
     27          6           0        2.662704    2.144209   -0.306218
     28          1           0        2.532215    2.425867    0.733534
     29          1           0        3.339516    2.836696   -0.782472
     30          1           0        1.708999    2.171087   -0.813845
     31          6           0       -1.807292   -1.524104    0.006398
     32          8           0       -1.081269   -2.438219    0.303049
     33          7           0       -3.112732   -1.679689   -0.257271
     34          1           0       -3.622829   -0.897780   -0.598698
     35          6           0       -3.728394   -2.993587   -0.305305
     36          1           0       -3.406893   -3.552703   -1.176050
     37          1           0       -3.466073   -3.553378    0.580067
     38          1           0       -4.801541   -2.869791   -0.340447
 ---------------------------------------------------------------------
 Rotational constants (GHZ):      0.6188640      0.2788136      0.1999204
 Standard basis: 6-31G(d) (6D, 7F)
 There are   284 symmetry adapted cartesian basis functions of A   symmetry.
 There are   284 symmetry adapted basis functions of A   symmetry.
   284 basis functions,   536 primitive gaussians,   284 cartesian basis functions
    63 alpha electrons       63 beta electrons
       nuclear repulsion energy      1202.5860124771 Hartrees.
 NAtoms=   38 NActive=   38 NUniq=   38 SFac= 1.00D+00 NAtFMM=   60 NAOKFM=F Big=F
 Integral buffers will be    131072 words long.
 Raffenetti 1 integral format.
 Two-electron integral symmetry is turned on.
 One-electron integrals computed using PRISM.
 NBasis=   284 RedAO= T EigKep=  1.85D-03  NBF=   284
 NBsUse=   284 1.00D-06 EigRej= -1.00D+00 NBFU=   284
 ExpMin= 1.61D-01 ExpMax= 5.48D+03 ExpMxC= 8.25D+02 IAcc=1 IRadAn=         1 AccDes= 0.00D+00
 Harris functional with IExCor=  205 and IRadAn=       1 diagonalized for initial guess.
 HarFok:  IExCor=  205 AccDes= 0.00D+00 IRadAn=         1 IDoV= 1 UseB2=F ITyADJ=14
 ICtDFT=  3500011 ScaDFX=  1.000000  1.000000  1.000000  1.000000
 FoFCou: FMM=F IPFlag=           0 FMFlag=      100000 FMFlg1=           0
         NFxFlg=           0 DoJE=T BraDBF=F KetDBF=T FulRan=T
         wScrn=  0.000000 ICntrl=     500 IOpCl=  0 I1Cent=   200000004 NGrid=           0
         NMat0=    1 NMatS0=      1 NMatT0=    0 NMatD0=    1 NMtDS0=    0 NMtDT0=    0
 Petite list used in FoFCou.
 Keep R1 ints in memory in canonical form, NReq=830770067.
 Requested convergence on RMS density matrix=1.00D-08 within 128 cycles.
 Requested convergence on MAX density matrix=1.00D-06.
 Requested convergence on             energy=1.00D-06.
 No special actions if energy rises.
 SCF Done:  E(RHF) =  -779.243068671     A.U. after   13 cycles
            NFock= 13  Conv=0.89D-08     -V/T= 2.0014

 **********************************************************************

            Population analysis using the SCF density.

 **********************************************************************

 Orbital symmetries:
 BldTbl:  Degeneracy threshold= 1.00D-02
       Occupied  (A) (A) (A) (A) (A) (A) (A) (A) (A) (A) (A) (A)
                 (A) (A) (A) (A) (A) (A) (A) (A) (A) (A) (A) (A)
                 (A) (A) (A) (A) (A) (A) (A) (A) (A) (A) (A) (A)
                 (A) (A) (A) (A) (A) (A) (A) (A) (A) (A) (A) (A)
                 (A) (A) (A) (A) (A) (A) (A) (A) (A) (A) (A) (A)
                 (A) (A) (A)
       Virtual   (A) (A) (A) (A) (A) (A) (A) (A) (A) (A) (A) (A)
                 (A) (A) (A) (A) (A) (A) (A) (A) (A) (A) (A) (A)
                 (A) (A) (A) (A) (A) (A) (A) (A) (A) (A) (A) (A)
                 (A) (A) (A) (A) (A) (A) (A) (A) (A) (A) (A) (A)
                 (A) (A) (A) (A) (A) (A) (A) (A) (A) (A) (A) (A)
                 (A) (A) (A) (A) (A) (A) (A) (A) (A) (A) (A) (A)
                 (A) (A) (A) (A) (A) (A) (A) (A) (A) (A) (A) (A)
                 (A) (A) (A) (A) (A) (A) (A) (A) (A) (A) (A) (A)
                 (A) (A) (A) (A) (A) (A) (A) (A) (A) (A) (A) (A)
                 (A) (A) (A) (A) (A) (A) (A) (A) (A) (A) (A) (A)
                 (A) (A) (A) (A) (A) (A) (A) (A) (A) (A) (A) (A)
                 (A) (A) (A) (A) (A) (A) (A) (A) (A) (A) (A) (A)
                 (A) (A) (A) (A) (A) (A) (A) (A) (A) (A) (A) (A)
                 (A) (A) (A) (A) (A) (A) (A) (A) (A) (A) (A) (A)
                 (A) (A) (A) (A) (A) (A) (A) (A) (A) (A) (A) (A)
                 (A) (A) (A) (A) (A) (A) (A) (A) (A) (A) (A) (A)
                 (A) (A) (A) (A) (A) (A) (A) (A) (A) (A) (A) (A)
                 (A) (A) (A) (A) (A) (A) (A) (A) (A) (A) (A) (A)
                 (A) (A) (A) (A) (A)
 The electronic state is 1-A.
 Alpha  occ. eigenvalues --  -20.70895 -20.62008 -20.61580 -15.86660 -15.68151
 Alpha  occ. eigenvalues --  -15.67245 -11.45307 -11.44123 -11.43763 -11.43725
 Alpha  occ. eigenvalues --  -11.38746 -11.37419 -11.34131 -11.33402 -11.33044
 Alpha  occ. eigenvalues --  -11.31477  -1.53458  -1.48896  -1.48458  -1.48255
 Alpha  occ. eigenvalues --   -1.34040  -1.31341  -1.22116  -1.16457  -1.10724
 Alpha  occ. eigenvalues --   -1.07255  -1.06285  -1.03084  -0.97419  -0.95420
 Alpha  occ. eigenvalues --   -0.95021  -0.92297  -0.88825  -0.87675  -0.83221
 Alpha  occ. eigenvalues --   -0.83068  -0.81734  -0.77856  -0.76704  -0.75839
 Alpha  occ. eigenvalues --   -0.74883  -0.73757  -0.73034  -0.71497  -0.71051
 Alpha  occ. eigenvalues --   -0.70484  -0.68364  -0.67575  -0.66713  -0.66346
 Alpha  occ. eigenvalues --   -0.64415  -0.63794  -0.63254  -0.62634  -0.61854
 Alpha  occ. eigenvalues --   -0.59828  -0.59622  -0.58709  -0.55886  -0.51612
 Alpha  occ. eigenvalues --   -0.50986  -0.48848  -0.47389
 Alpha virt. eigenvalues --    0.00984   0.07451   0.09508   0.10199   0.11133
 Alpha virt. eigenvalues --    0.11286   0.12821   0.13765   0.14537   0.15249
 Alpha virt. eigenvalues --    0.16997   0.17192   0.18268   0.18758   0.19795
 Alpha virt. eigenvalues --    0.20481   0.20529   0.21031   0.22407   0.22757
 Alpha virt. eigenvalues --    0.23104   0.23719   0.24729   0.25046   0.25383
 Alpha virt. eigenvalues --    0.26954   0.28583   0.29021   0.30058   0.31780
 Alpha virt. eigenvalues --    0.32460   0.35369   0.36952   0.38691   0.38975
 Alpha virt. eigenvalues --    0.42645   0.46465   0.47847   0.52358   0.56768
 Alpha virt. eigenvalues --    0.57594   0.59255   0.62137   0.63159   0.64555
 Alpha virt. eigenvalues --    0.65601   0.65970   0.66511   0.67566   0.68135
 Alpha virt. eigenvalues --    0.68922   0.70836   0.71761   0.72385   0.73653
 Alpha virt. eigenvalues --    0.75273   0.75919   0.77807   0.78625   0.81331
 Alpha virt. eigenvalues --    0.81892   0.83031   0.85882   0.87607   0.88712
 Alpha virt. eigenvalues --    0.89001   0.90560   0.90926   0.92350   0.92665
 Alpha virt. eigenvalues --    0.93948   0.94390   0.94826   0.95190   0.97057
 Alpha virt. eigenvalues --    0.98263   0.98740   0.99415   1.00872   1.01514
 Alpha virt. eigenvalues --    1.03160   1.03522   1.03883   1.05367   1.05455
 Alpha virt. eigenvalues --    1.06058   1.07311   1.07849   1.08441   1.09325
 Alpha virt. eigenvalues --    1.09940   1.11120   1.11344   1.12061   1.13258
 Alpha virt. eigenvalues --    1.13498   1.14666   1.15336   1.15909   1.17501
 Alpha virt. eigenvalues --    1.17894   1.21370   1.24242   1.26422   1.27867
 Alpha virt. eigenvalues --    1.30379   1.31325   1.34025   1.36157   1.38733
 Alpha virt. eigenvalues --    1.39761   1.44651   1.47167   1.49054   1.49972
 Alpha virt. eigenvalues --    1.52082   1.54417   1.55686   1.57903   1.59331
 Alpha virt. eigenvalues --    1.61108   1.61952   1.63883   1.65647   1.67441
 Alpha virt. eigenvalues --    1.68360   1.70141   1.72186   1.74398   1.79302
 Alpha virt. eigenvalues --    1.82412   1.83671   1.87731   1.91411   1.92459
 Alpha virt. eigenvalues --    1.94443   1.97169   2.01390   2.02046   2.02843
 Alpha virt. eigenvalues --    2.03071   2.04689   2.06283   2.07366   2.08445
 Alpha virt. eigenvalues --    2.09481   2.09809   2.11040   2.11787   2.14937
 Alpha virt. eigenvalues --    2.16559   2.17258   2.19717   2.21449   2.22817
 Alpha virt. eigenvalues --    2.23598   2.26132   2.26947   2.27875   2.29830
 Alpha virt. eigenvalues --    2.30979   2.32981   2.33194   2.34547   2.35900
 Alpha virt. eigenvalues --    2.38752   2.41413   2.43929   2.44951   2.48093
 Alpha virt. eigenvalues --    2.49332   2.51970   2.52233   2.54592   2.55151
 Alpha virt. eigenvalues --    2.57333   2.61170   2.62221   2.63831   2.65454
 Alpha virt. eigenvalues --    2.68175   2.69208   2.71200   2.71503   2.73976
 Alpha virt. eigenvalues --    2.75274   2.80748   2.82001   2.83196   2.86602
 Alpha virt. eigenvalues --    2.91583   2.92184   2.93553   2.97488   2.98098
 Alpha virt. eigenvalues --    3.02715   3.05165   3.12611   3.18007   3.19365
 Alpha virt. eigenvalues --    3.26443   3.29688   3.34334   3.45827   3.49740
 Alpha virt. eigenvalues --    4.01321   4.26727   4.31055   4.33530   4.40138
 Alpha virt. eigenvalues --    4.44212   4.50192   4.56106   4.57513   4.58791
 Alpha virt. eigenvalues --    4.63556   4.71420   4.81260   4.85390   4.92153
 Alpha virt. eigenvalues --    4.98348
          Condensed to atoms (all electrons):
               1          2          3          4          5          6
     1  C    5.245704   0.378025   0.376600   0.386032   0.379372  -0.064026
     2  H    0.378025   0.488078  -0.024689  -0.015980  -0.033301   0.001024
     3  H    0.376600  -0.024689   0.502658  -0.017109  -0.033548   0.001193
     4  H    0.386032  -0.015980  -0.017109   0.441261  -0.033284   0.003217
     5  C    0.379372  -0.033301  -0.033548  -0.033284   4.181085   0.604465
     6  O   -0.064026   0.001024   0.001193   0.003217   0.604465   8.147500
     7  N   -0.121878   0.002922   0.002408   0.004381   0.236990  -0.113346
     8  H   -0.000415   0.000140   0.000683  -0.000034  -0.015543   0.002277
     9  C    0.004798  -0.000188  -0.000254  -0.000094  -0.026173   0.010156
    10  H    0.000264  -0.000023  -0.000009  -0.000004  -0.003202   0.007354
    11  C   -0.000182  -0.000001   0.000075   0.000006  -0.003734  -0.003392
    12  H    0.000052   0.000002  -0.000038   0.000004   0.002695   0.004128
    13  H   -0.000001   0.000000  -0.000005   0.000000   0.000210   0.000071
    14  C   -0.000001   0.000000   0.000000   0.000000  -0.000025  -0.000236
    15  H    0.000000   0.000000   0.000000   0.000000  -0.000003  -0.000001
    16  H    0.000000   0.000000   0.000000   0.000000   0.000001   0.000059
    17  C    0.000000   0.000000   0.000000   0.000000  -0.000006   0.000001
    18  H    0.000000   0.000000   0.000000   0.000000   0.000000   0.000000
    19  C    0.000000   0.000000   0.000000   0.000000   0.000000   0.000000
    20  H    0.000000   0.000000   0.000000   0.000000   0.000000   0.000000
    21  H    0.000000   0.000000   0.000000   0.000000   0.000000   0.000000
    22  N    0.000000   0.000000   0.000000   0.000000   0.000000   0.000000
    23  H    0.000000   0.000000   0.000000   0.000000   0.000000   0.000000
    24  H    0.000000   0.000000   0.000000   0.000000   0.000000   0.000000
    25  H    0.000000   0.000000   0.000000   0.000000   0.000000   0.000000
    26  O    0.000000   0.000000   0.000000   0.000000   0.000000   0.000002
    27  C   -0.000003   0.000000   0.000000   0.000000   0.000014  -0.000845
    28  H    0.000000   0.000000   0.000000   0.000000   0.000003  -0.000007
    29  H    0.000000   0.000000   0.000000   0.000000  -0.000001   0.000002
    30  H    0.000018   0.000000  -0.000001   0.000000  -0.000021   0.003908
    31  C   -0.000010   0.000008  -0.000010   0.000000   0.002869   0.000548
    32  O    0.000000   0.000000   0.000000   0.000000  -0.000069  -0.000001
    33  N   -0.000026  -0.000003   0.000001   0.000000   0.000080   0.000008
    34  H    0.000012   0.000034   0.000000   0.000000  -0.000185  -0.000046
    35  C    0.000000   0.000000   0.000000   0.000000   0.000009   0.000000
    36  H    0.000000   0.000000   0.000000   0.000000   0.000000   0.000000
    37  H    0.000000   0.000000   0.000000   0.000000   0.000000   0.000000
    38  H    0.000000   0.000000   0.000000   0.000000   0.000000   0.000000
               7          8          9         10         11         12
     1  C   -0.121878  -0.000415   0.004798   0.000264  -0.000182   0.000052
     2  H    0.002922   0.000140  -0.000188  -0.000023  -0.000001   0.000002
     3  H    0.002408   0.000683  -0.000254  -0.000009   0.000075  -0.000038
     4  H    0.004381  -0.000034  -0.000094  -0.000004   0.000006   0.000004
     5  C    0.236990  -0.015543  -0.026173  -0.003202  -0.003734   0.002695
     6  O   -0.113346   0.002277   0.010156   0.007354  -0.003392   0.004128
     7  N    7.458135   0.319777   0.179652  -0.039086  -0.062236  -0.006793
     8  H    0.319777   0.318468  -0.025929   0.003227   0.000976  -0.000028
     9  C    0.179652  -0.025929   5.091164   0.402090   0.348284  -0.040902
    10  H   -0.039086   0.003227   0.402090   0.457681  -0.042491  -0.000867
    11  C   -0.062236   0.000976   0.348284  -0.042491   5.128789   0.407441
    12  H   -0.006793  -0.000028  -0.040902  -0.000867   0.407441   0.503927
    13  H    0.001268   0.000546  -0.035167   0.003624   0.391002  -0.026375
    14  C    0.004199  -0.000052  -0.040685  -0.002309   0.314373  -0.042191
    15  H    0.000009   0.000004  -0.003561   0.000226  -0.031578   0.003192
    16  H    0.000030   0.000000  -0.003060   0.002759  -0.037517  -0.000390
    17  C   -0.000061   0.000002   0.003542  -0.000085  -0.038659  -0.002611
    18  H   -0.000003   0.000000   0.000020  -0.000003  -0.003419   0.001218
    19  C    0.000000   0.000000  -0.000084   0.000002   0.003511   0.000086
    20  H    0.000000   0.000000  -0.000001   0.000000  -0.000048  -0.000004
    21  H    0.000000   0.000000  -0.000003  -0.000001   0.000036   0.000006
    22  N    0.000000   0.000000   0.000000   0.000000  -0.000071   0.000000
    23  H    0.000000   0.000000   0.000000   0.000000  -0.000001   0.000000
    24  H    0.000000   0.000000   0.000000   0.000000   0.000001   0.000000
    25  H    0.000000   0.000000   0.000000   0.000000  -0.000016  -0.000002
    26  O    0.000000   0.000000  -0.000086  -0.000005   0.001665   0.000208
    27  C    0.000019   0.000000  -0.000012   0.000017  -0.000602  -0.001762
    28  H    0.000001   0.000000   0.000002  -0.000003  -0.000108   0.000157
    29  H    0.000000   0.000000  -0.000003   0.000000   0.000093   0.000172
    30  H   -0.000119  -0.000001   0.000429   0.000081  -0.003165  -0.001662
    31  C   -0.036632  -0.003101   0.379703  -0.028833  -0.054733   0.003582
    32  O    0.001309  -0.000015  -0.080549   0.000530   0.005801   0.000269
    33  N   -0.005478   0.004711  -0.126456  -0.000470   0.003868  -0.000028
    34  H    0.009015  -0.000488  -0.001671  -0.000438   0.000365  -0.000004
    35  C    0.000032  -0.000143   0.004050  -0.000196  -0.000093   0.000001
    36  H   -0.000001   0.000009  -0.000272   0.000029  -0.000010   0.000000
    37  H   -0.000027  -0.000025   0.000246  -0.000005   0.000010   0.000000
    38  H   -0.000007  -0.000006   0.000038  -0.000002   0.000001   0.000000
              13         14         15         16         17         18
     1  C   -0.000001  -0.000001   0.000000   0.000000   0.000000   0.000000
     2  H    0.000000   0.000000   0.000000   0.000000   0.000000   0.000000
     3  H   -0.000005   0.000000   0.000000   0.000000   0.000000   0.000000
     4  H    0.000000   0.000000   0.000000   0.000000   0.000000   0.000000
     5  C    0.000210  -0.000025  -0.000003   0.000001  -0.000006   0.000000
     6  O    0.000071  -0.000236  -0.000001   0.000059   0.000001   0.000000
     7  N    0.001268   0.004199   0.000009   0.000030  -0.000061  -0.000003
     8  H    0.000546  -0.000052   0.000004   0.000000   0.000002   0.000000
     9  C   -0.035167  -0.040685  -0.003561  -0.003060   0.003542   0.000020
    10  H    0.003624  -0.002309   0.000226   0.002759  -0.000085  -0.000003
    11  C    0.391002   0.314373  -0.031578  -0.037517  -0.038659  -0.003419
    12  H   -0.026375  -0.042191   0.003192  -0.000390  -0.002611   0.001218
    13  H    0.511315  -0.033365  -0.002773   0.003320  -0.003248   0.001577
    14  C   -0.033365   5.239315   0.391196   0.391357   0.326283  -0.048196
    15  H   -0.002773   0.391196   0.452941  -0.019537  -0.042232   0.002425
    16  H    0.003320   0.391357  -0.019537   0.495890  -0.038990   0.004213
    17  C   -0.003248   0.326283  -0.042232  -0.038990   4.838282   0.401020
    18  H    0.001577  -0.048196   0.002425   0.004213   0.401020   0.547297
    19  C   -0.000138  -0.048783  -0.001458  -0.003114   0.347958  -0.046903
    20  H    0.000046  -0.000523  -0.000130   0.000147  -0.029532   0.000588
    21  H   -0.000001  -0.003723   0.000960   0.001627  -0.031871   0.003813
    22  N    0.000000   0.003407   0.000199  -0.000166  -0.052908  -0.003366
    23  H   -0.000001  -0.000034   0.000007   0.000002  -0.000611   0.001901
    24  H    0.000000  -0.000034  -0.000007   0.000002   0.003287  -0.000178
    25  H    0.000000   0.000534  -0.000030   0.000022  -0.009304   0.000892
    26  O    0.000040  -0.041771   0.002187  -0.000155   0.186200  -0.044858
    27  C    0.000041  -0.002372   0.000049  -0.000651  -0.040010  -0.002483
    28  H   -0.000002  -0.001288  -0.000002   0.000294  -0.005264   0.006071
    29  H   -0.000001  -0.000171   0.000005  -0.000079   0.003863  -0.000143
    30  H    0.000084   0.003826  -0.000052  -0.000509  -0.003281  -0.000649
    31  C   -0.003122  -0.000607   0.001267   0.000174   0.000000  -0.000001
    32  O    0.003828  -0.008097   0.009960   0.000250   0.000332   0.000002
    33  N   -0.000006  -0.000160   0.000137  -0.000014   0.000002   0.000000
    34  H   -0.000012  -0.000015  -0.000006  -0.000002   0.000000   0.000000
    35  C   -0.000012   0.000003  -0.000001   0.000000   0.000000   0.000000
    36  H    0.000000   0.000001   0.000002   0.000000   0.000000   0.000000
    37  H    0.000000   0.000000  -0.000002   0.000000   0.000000   0.000000
    38  H    0.000000   0.000000   0.000000   0.000000   0.000000   0.000000
              19         20         21         22         23         24
     1  C    0.000000   0.000000   0.000000   0.000000   0.000000   0.000000
     2  H    0.000000   0.000000   0.000000   0.000000   0.000000   0.000000
     3  H    0.000000   0.000000   0.000000   0.000000   0.000000   0.000000
     4  H    0.000000   0.000000   0.000000   0.000000   0.000000   0.000000
     5  C    0.000000   0.000000   0.000000   0.000000   0.000000   0.000000
     6  O    0.000000   0.000000   0.000000   0.000000   0.000000   0.000000
     7  N    0.000000   0.000000   0.000000   0.000000   0.000000   0.000000
     8  H    0.000000   0.000000   0.000000   0.000000   0.000000   0.000000
     9  C   -0.000084  -0.000001  -0.000003   0.000000   0.000000   0.000000
    10  H    0.000002   0.000000  -0.000001   0.000000   0.000000   0.000000
    11  C    0.003511  -0.000048   0.000036  -0.000071  -0.000001   0.000001
    12  H    0.000086  -0.000004   0.000006   0.000000   0.000000   0.000000
    13  H   -0.000138   0.000046  -0.000001   0.000000  -0.000001   0.000000
    14  C   -0.048783  -0.000523  -0.003723   0.003407  -0.000034  -0.000034
    15  H   -0.001458  -0.000130   0.000960   0.000199   0.000007  -0.000007
    16  H   -0.003114   0.000147   0.001627  -0.000166   0.000002   0.000002
    17  C    0.347958  -0.029532  -0.031871  -0.052908  -0.000611   0.003287
    18  H   -0.046903   0.000588   0.003813  -0.003366   0.001901  -0.000178
    19  C    5.171383   0.395630   0.398447   0.129516  -0.015280  -0.017829
    20  H    0.395630   0.420425  -0.015144  -0.032448  -0.001752  -0.001153
    21  H    0.398447  -0.015144   0.423313  -0.038769   0.002548  -0.002527
    22  N    0.129516  -0.032448  -0.038769   6.975320   0.306015   0.312810
    23  H   -0.015280  -0.001752   0.002548   0.306015   0.269530  -0.010367
    24  H   -0.017829  -0.001153  -0.002527   0.312810  -0.010367   0.261382
    25  H   -0.022651   0.002453  -0.000293   0.284513  -0.007297  -0.008585
    26  O   -0.069293   0.002453   0.001535  -0.019908   0.000339   0.000282
    27  C    0.004837  -0.000078  -0.000111   0.000296  -0.000035   0.000004
    28  H    0.000096   0.000012   0.000016  -0.000087   0.000014  -0.000002
    29  H   -0.000102   0.000001   0.000001   0.000064  -0.000001  -0.000001
    30  H   -0.000387   0.000000  -0.000016  -0.000004   0.000001   0.000001
    31  C    0.000000  -0.000001   0.000000   0.000000   0.000000   0.000000
    32  O   -0.000038  -0.000003   0.000001   0.000000   0.000000   0.000000
    33  N    0.000000   0.000000   0.000000   0.000000   0.000000   0.000000
    34  H    0.000000   0.000000   0.000000   0.000000   0.000000   0.000000
    35  C    0.000000   0.000000   0.000000   0.000000   0.000000   0.000000
    36  H    0.000000   0.000000   0.000000   0.000000   0.000000   0.000000
    37  H    0.000000   0.000000   0.000000   0.000000   0.000000   0.000000
    38  H    0.000000   0.000000   0.000000   0.000000   0.000000   0.000000
              25         26         27         28         29         30
     1  C    0.000000   0.000000  -0.000003   0.000000   0.000000   0.000018
     2  H    0.000000   0.000000   0.000000   0.000000   0.000000   0.000000
     3  H    0.000000   0.000000   0.000000   0.000000   0.000000  -0.000001
     4  H    0.000000   0.000000   0.000000   0.000000   0.000000   0.000000
     5  C    0.000000   0.000000   0.000014   0.000003  -0.000001  -0.000021
     6  O    0.000000   0.000002  -0.000845  -0.000007   0.000002   0.003908
     7  N    0.000000   0.000000   0.000019   0.000001   0.000000  -0.000119
     8  H    0.000000   0.000000   0.000000   0.000000   0.000000  -0.000001
     9  C    0.000000  -0.000086  -0.000012   0.000002  -0.000003   0.000429
    10  H    0.000000  -0.000005   0.000017  -0.000003   0.000000   0.000081
    11  C   -0.000016   0.001665  -0.000602  -0.000108   0.000093  -0.003165
    12  H   -0.000002   0.000208  -0.001762   0.000157   0.000172  -0.001662
    13  H    0.000000   0.000040   0.000041  -0.000002  -0.000001   0.000084
    14  C    0.000534  -0.041771  -0.002372  -0.001288  -0.000171   0.003826
    15  H   -0.000030   0.002187   0.000049  -0.000002   0.000005  -0.000052
    16  H    0.000022  -0.000155  -0.000651   0.000294  -0.000079  -0.000509
    17  C   -0.009304   0.186200  -0.040010  -0.005264   0.003863  -0.003281
    18  H    0.000892  -0.044858  -0.002483   0.006071  -0.000143  -0.000649
    19  C   -0.022651  -0.069293   0.004837   0.000096  -0.000102  -0.000387
    20  H    0.002453   0.002453  -0.000078   0.000012   0.000001   0.000000
    21  H   -0.000293   0.001535  -0.000111   0.000016   0.000001  -0.000016
    22  N    0.284513  -0.019908   0.000296  -0.000087   0.000064  -0.000004
    23  H   -0.007297   0.000339  -0.000035   0.000014  -0.000001   0.000001
    24  H   -0.008585   0.000282   0.000004  -0.000002  -0.000001   0.000001
    25  H    0.240180   0.033054  -0.001245   0.000128  -0.000316   0.000111
    26  O    0.033054   8.566937   0.170063  -0.037557  -0.031619  -0.033536
    27  C   -0.001245   0.170063   4.892579   0.390912   0.400867   0.394732
    28  H    0.000128  -0.037557   0.390912   0.544292  -0.027561  -0.035389
    29  H   -0.000316  -0.031619   0.400867  -0.027561   0.474793  -0.024858
    30  H    0.000111  -0.033536   0.394732  -0.035389  -0.024858   0.481896
    31  C    0.000000   0.000000  -0.000002   0.000000   0.000000   0.000004
    32  O    0.000000   0.000000   0.000000   0.000000   0.000000   0.000000
    33  N    0.000000   0.000000   0.000000   0.000000   0.000000   0.000000
    34  H    0.000000   0.000000   0.000000   0.000000   0.000000   0.000000
    35  C    0.000000   0.000000   0.000000   0.000000   0.000000   0.000000
    36  H    0.000000   0.000000   0.000000   0.000000   0.000000   0.000000
    37  H    0.000000   0.000000   0.000000   0.000000   0.000000   0.000000
    38  H    0.000000   0.000000   0.000000   0.000000   0.000000   0.000000
              31         32         33         34         35         36
     1  C   -0.000010   0.000000  -0.000026   0.000012   0.000000   0.000000
     2  H    0.000008   0.000000  -0.000003   0.000034   0.000000   0.000000
     3  H   -0.000010   0.000000   0.000001   0.000000   0.000000   0.000000
     4  H    0.000000   0.000000   0.000000   0.000000   0.000000   0.000000
     5  C    0.002869  -0.000069   0.000080  -0.000185   0.000009   0.000000
     6  O    0.000548  -0.000001   0.000008  -0.000046   0.000000   0.000000
     7  N   -0.036632   0.001309  -0.005478   0.009015   0.000032  -0.000001
     8  H   -0.003101  -0.000015   0.004711  -0.000488  -0.000143   0.000009
     9  C    0.379703  -0.080549  -0.126456  -0.001671   0.004050  -0.000272
    10  H   -0.028833   0.000530  -0.000470  -0.000438  -0.000196   0.000029
    11  C   -0.054733   0.005801   0.003868   0.000365  -0.000093  -0.000010
    12  H    0.003582   0.000269  -0.000028  -0.000004   0.000001   0.000000
    13  H   -0.003122   0.003828  -0.000006  -0.000012  -0.000012   0.000000
    14  C   -0.000607  -0.008097  -0.000160  -0.000015   0.000003   0.000001
    15  H    0.001267   0.009960   0.000137  -0.000006  -0.000001   0.000002
    16  H    0.000174   0.000250  -0.000014  -0.000002   0.000000   0.000000
    17  C    0.000000   0.000332   0.000002   0.000000   0.000000   0.000000
    18  H   -0.000001   0.000002   0.000000   0.000000   0.000000   0.000000
    19  C    0.000000  -0.000038   0.000000   0.000000   0.000000   0.000000
    20  H   -0.000001  -0.000003   0.000000   0.000000   0.000000   0.000000
    21  H    0.000000   0.000001   0.000000   0.000000   0.000000   0.000000
    22  N    0.000000   0.000000   0.000000   0.000000   0.000000   0.000000
    23  H    0.000000   0.000000   0.000000   0.000000   0.000000   0.000000
    24  H    0.000000   0.000000   0.000000   0.000000   0.000000   0.000000
    25  H    0.000000   0.000000   0.000000   0.000000   0.000000   0.000000
    26  O    0.000000   0.000000   0.000000   0.000000   0.000000   0.000000
    27  C   -0.000002   0.000000   0.000000   0.000000   0.000000   0.000000
    28  H    0.000000   0.000000   0.000000   0.000000   0.000000   0.000000
    29  H    0.000000   0.000000   0.000000   0.000000   0.000000   0.000000
    30  H    0.000004   0.000000   0.000000   0.000000   0.000000   0.000000
    31  C    4.123171   0.596105   0.308432  -0.023983  -0.030446  -0.002590
    32  O    0.596105   8.188378  -0.102828   0.002425   0.006869   0.001302
    33  N    0.308432  -0.102828   7.316064   0.324465   0.187705  -0.045912
    34  H   -0.023983   0.002425   0.324465   0.307787  -0.020544   0.000761
    35  C   -0.030446   0.006869   0.187705  -0.020544   4.925362   0.405960
    36  H   -0.002590   0.001302  -0.045912   0.000761   0.405960   0.511830
    37  H   -0.003788   0.003042  -0.038604   0.002533   0.403146  -0.031314
    38  H    0.004214   0.000326  -0.036578  -0.003944   0.398964  -0.029352
              37         38
     1  C    0.000000   0.000000
     2  H    0.000000   0.000000
     3  H    0.000000   0.000000
     4  H    0.000000   0.000000
     5  C    0.000000   0.000000
     6  O    0.000000   0.000000
     7  N   -0.000027  -0.000007
     8  H   -0.000025  -0.000006
     9  C    0.000246   0.000038
    10  H   -0.000005  -0.000002
    11  C    0.000010   0.000001
    12  H    0.000000   0.000000
    13  H    0.000000   0.000000
    14  C    0.000000   0.000000
    15  H   -0.000002   0.000000
    16  H    0.000000   0.000000
    17  C    0.000000   0.000000
    18  H    0.000000   0.000000
    19  C    0.000000   0.000000
    20  H    0.000000   0.000000
    21  H    0.000000   0.000000
    22  N    0.000000   0.000000
    23  H    0.000000   0.000000
    24  H    0.000000   0.000000
    25  H    0.000000   0.000000
    26  O    0.000000   0.000000
    27  C    0.000000   0.000000
    28  H    0.000000   0.000000
    29  H    0.000000   0.000000
    30  H    0.000000   0.000000
    31  C   -0.003788   0.004214
    32  O    0.003042   0.000326
    33  N   -0.038604  -0.036578
    34  H    0.002533  -0.003944
    35  C    0.403146   0.398964
    36  H   -0.031314  -0.029352
    37  H    0.480568  -0.024017
    38  H   -0.024017   0.504344
 Mulliken charges:
               1
     1  C   -0.584336
     2  H    0.203952
     3  H    0.192046
     4  H    0.231605
     5  C    0.741301
     6  O   -0.604013
     7  N   -0.834480
     8  H    0.394962
     9  C   -0.039023
    10  H    0.240149
    11  C   -0.324243
    12  H    0.196516
    13  H    0.187260
    14  C   -0.399856
    15  H    0.236609
    16  H    0.204037
    17  C    0.187902
    18  H    0.179164
    19  C   -0.225408
    20  H    0.259061
    21  H    0.260158
    22  N   -0.864412
    23  H    0.455021
    24  H    0.462914
    25  H    0.487851
    26  O   -0.686176
    27  C   -0.204221
    28  H    0.165274
    29  H    0.204995
    30  H    0.218560
    31  C    0.767781
    32  O   -0.629130
    33  N   -0.788909
    34  H    0.403940
    35  C   -0.280665
    36  H    0.189558
    37  H    0.208237
    38  H    0.186019
 Sum of Mulliken charges =   1.00000
 Mulliken charges with hydrogens summed into heavy atoms:
               1
     1  C    0.043267
     5  C    0.741301
     6  O   -0.604013
     7  N   -0.439518
     9  C    0.201125
    11  C    0.059533
    14  C    0.040789
    17  C    0.367066
    19  C    0.293811
    22  N    0.541374
    26  O   -0.686176
    27  C    0.384608
    31  C    0.767781
    32  O   -0.629130
    33  N   -0.384969
    35  C    0.303149
 DipInt: DoE/N= T F RetVal/Mat= T F Init=T NMatP=  1 IDeriv=0 Min/MaxMlt=  0  4
 Entering OneElI...
 OneElI was handed  1073532743 working-precision words.
 Multipole integrals L=0 to 4 MinM= 0 MaxM= 0.
 Requested accuracy = 0.1000D-12
 PrtBox:  NBox=     1 Levels=  1 BoxLen=   35.86 SMaxX=       19.85
          Shift=            9.073598            6.714911            2.423577
 Box      1 Number                   0 centers from      1 to    108:
 ShPair: Thresh= 1.00D-13 NBox=     1 BxSize= 3.59D+01 RnKept= 2.04D+01
         NSMCal=                 5886 NSMKep=                4720
 PrsmSu:  NPrtUS=   1 ThrOK=F IAlg=1 NPAlg=1 LenDen=           0.
 Prism:   IPart=     0 DynPar=F LinDyn=F Incr=          47.
 PRISM was handed  1073154588 working-precision words and  4720 shell-pairs
 IPart=  0 NShTot=        4720 NBatch=          73 AvBLen=        64.7
 PrSmSu:  NxtVal=             48.
 Electronic moments (au):
       -126.00000000          5.27426788         -0.93485598          1.13912259
      -3558.88235829      -1616.69905344       -193.59776021        -13.24509603
          3.49106573          5.71994174      -6063.52648126       -804.98150398
        -25.81551228       4370.07926537       2085.72067383       -161.16285929
         80.10322614       -164.00313943        124.62444170        738.32579656
    -185235.58809942     -44068.20025643      -1067.43394064       3165.31832715
      -2552.74709915      -2025.56288003      -1057.96120766         34.32633001
       -132.14626195     -48189.13413942      -4922.61086365      -2867.20863319
      -2341.21101619        742.65025445        474.38919355
 Electronic spatial extent (au):  <R**2>=           5369.1792
 DipInt: DoE/N= F T RetVal/Mat= T F Init=T NMatP=  1 IDeriv=0 Min/MaxMlt=  0  4
 Nuclear    moments (au):
        127.00000000          0.00000000          0.00000000          0.00000000
       3578.37011299       1549.24794541        124.78746193          0.00000000
          0.00000000          0.00000000       6658.50602240        816.88573436
         34.10669195      -4339.65765119      -2233.60590274        207.27271270
        -55.93620190        154.68192350       -113.77400379       -766.27362287
     181494.59550058      38768.25281670        470.37022021      -4439.76875832
       3002.29143246       1976.38097736       1161.41483057         -5.56994835
        126.35873575      46208.82903911       3048.35258024       1844.33002526
       2360.56716456       -790.71575183       -507.40718496
 Total      moments (au):
          1.00000000          5.27426788         -0.93485598          1.13912259
         19.48775470        -67.45110803        -68.81029827        -13.24509603
          3.49106573          5.71994174        594.97954113         11.90423037
          8.29117967         30.42161418       -147.88522891         46.10985341
         24.16702424         -9.32121593         10.85043791        -27.94782631
      -3740.99259884      -5299.94743973       -597.06372043      -1274.45043117
        449.54433331        -49.18190268        103.45362291         28.75638167
         -5.78752620      -1980.30510031      -1874.25828342      -1022.87860792
         19.35614837        -48.06549738        -33.01799141
 Traceless Quadrup. (au):
         58.41230524        -28.52655750        -29.88574774        -13.24509603
          3.49106573          5.71994174
 Charge=              1.0000 electrons
 Dipole moment (field-independent basis, Debye):
    X=             13.4059    Y=             -2.3762    Z=              2.8954  Tot=             13.9193
 Quadrupole moment (field-independent basis, Debye-Ang):
   XX=             26.2117   YY=            -90.7240   ZZ=            -92.5522
   XY=            -17.8151   XZ=              4.6956   YZ=              7.6935
 Traceless Quadrupole moment (field-independent basis, Debye-Ang):
   XX=             78.5665   YY=            -38.3692   ZZ=            -40.1974
   XY=            -17.8151   XZ=              4.6956   YZ=              7.6935
 Octapole moment (field-independent basis, Debye-Ang**2):
  XXX=            423.4835  YYY=              8.4730  ZZZ=              5.9013  XYY=             21.6529
  XXY=           -105.2590  XXZ=             32.8192  XZZ=             17.2012  YZZ=             -6.6345
  YYZ=              7.7229  XYZ=            -19.8922
 Hexadecapole moment (field-independent basis, Debye-Ang**3):
 XXXX=          -1409.0371 YYYY=          -1996.2142 ZZZZ=           -224.8828 XXXY=           -480.0191
 XXXZ=            169.3199 YYYX=            -18.5243 YYYZ=             38.9656 ZZZX=             10.8310
 ZZZY=             -2.1799 XXYY=           -745.8778 XXZZ=           -705.9355 YYZZ=           -385.2651
 XXYZ=              7.2905 YYXZ=            -18.1038 ZZXY=            -12.4362
 N-N= 1.202586012477D+03 E-N=-4.215414193276D+03  KE= 7.781492198906D+02
 Entering OneElI...
 OneElI was handed  1073571979 working-precision words.
 Calculate electrostatic properties
    NBasis =   284  MinDer = 0  MaxDer = 0
    NGrid  =    38  NMatD  =   1
 Requested accuracy = 0.1000D-12
 PrtBox:  NBox=     1 Levels=  1 BoxLen=   29.89 SMaxX=       19.85
          Shift=            9.073598            6.714911            2.423577
 Box      1 Number                   0 centers from      1 to    108:
 ShPair: Thresh= 1.00D-13 NBox=     1 BxSize= 2.99D+01 RnKept= 1.76D+01
         NSMCal=                 5886 NSMKep=                4155
 PrsmSu:  NPrtUS=   8 ThrOK=T IAlg=1 NPAlg=1 LenDen=           0.
 Prism:   IPart=     0 DynPar=F LinDyn=F Incr=         197.
 PRISM was handed   134052035 working-precision words and  4155 shell-pairs
 PRISM was handed   134052035 working-precision words and  4155 shell-pairs
 PRISM was handed   134052035 working-precision words and  4155 shell-pairs
 PRISM was handed   134052035 working-precision words and  4155 shell-pairs
 PRISM was handed   134052035 working-precision words and  4155 shell-pairs
 PRISM was handed   134052035 working-precision words and  4155 shell-pairs
 PRISM was handed   134052035 working-precision words and  4155 shell-pairs
 PRISM was handed   134052035 working-precision words and  4155 shell-pairs
 IPart=  5 NShTot=       19418 NBatch=         511 AvBLen=        38.0
 IPart=  6 NShTot=       19152 NBatch=         504 AvBLen=        38.0
 IPart=  7 NShTot=       18962 NBatch=         499 AvBLen=        38.0
 IPart=  3 NShTot=       19950 NBatch=         525 AvBLen=        38.0
 IPart=  4 NShTot=       19722 NBatch=         519 AvBLen=        38.0
 IPart=  2 NShTot=       19988 NBatch=         526 AvBLen=        38.0
 IPart=  1 NShTot=       20330 NBatch=         535 AvBLen=        38.0
 IPart=  0 NShTot=       20368 NBatch=         536 AvBLen=        38.0
 PrSmSu:  NxtVal=           1577.
 --------------------------------------------------------
       Center         ----      EFG at Nuclei      ----
                      3XX-RR        3YY-RR        3ZZ-RR
 --------------------------------------------------------
     1   Atom       -0.015192      0.008111      0.007081
     2   Atom       -0.247517      0.108466      0.139051
     3   Atom        0.152589      0.153367     -0.305956
     4   Atom        0.149514     -0.253359      0.103846
     5   Atom       -0.011000      0.140202     -0.129202
     6   Atom       -0.545049      1.356181     -0.811132
     7   Atom        0.289039     -0.409977      0.120938
     8   Atom        0.055329      0.151835     -0.207164
     9   Atom       -0.050464     -0.083238      0.133702
    10   Atom        0.138063      0.141015     -0.279078
    11   Atom       -0.054684      0.058522     -0.003838
    12   Atom        0.130791     -0.289736      0.158945
    13   Atom        0.142526      0.084295     -0.226821
    14   Atom       -0.088260      0.084484      0.003776
    15   Atom        0.139305     -0.298269      0.158964
    16   Atom        0.142199      0.121385     -0.263584
    17   Atom        0.129190     -0.212884      0.083693
    18   Atom        0.147282      0.124767     -0.272049
    19   Atom       -0.432646      0.200281      0.232366
    20   Atom        0.124697     -0.123006     -0.001691
    21   Atom        0.133526      0.131546     -0.265073
    22   Atom       -0.015579      0.058540     -0.042961
    23   Atom        0.169669      0.180674     -0.350343
    24   Atom       -0.077362     -0.042282      0.119644
    25   Atom        0.168935     -0.228247      0.059312
    26   Atom        0.505365     -1.656363      1.150998
    27   Atom        0.154081     -0.360874      0.206793
    28   Atom        0.156554      0.111281     -0.267835
    29   Atom       -0.029452     -0.046329      0.075781
    30   Atom       -0.198560      0.138191      0.060370
    31   Atom        0.159719      0.328090     -0.487808
    32   Atom        0.532701      0.190883     -0.723584
    33   Atom       -0.356622     -0.422358      0.778980
    34   Atom        0.017482     -0.194883      0.177401
    35   Atom        0.049385     -0.220665      0.171280
    36   Atom        0.117354      0.025894     -0.143248
    37   Atom        0.137029      0.021294     -0.158323
    38   Atom       -0.307077      0.137096      0.169981
 --------------------------------------------------------
                        XY            XZ            YZ
 --------------------------------------------------------
     1   Atom        0.061000      0.014755     -0.047948
     2   Atom       -0.130661     -0.091555     -0.035509
     3   Atom        0.008050     -0.049091      0.005221
     4   Atom       -0.060032      0.026587      0.152275
     5   Atom       -0.143532     -0.458084     -0.069502
     6   Atom       -0.871465     -0.070875      0.117612
     7   Atom        0.328576      0.707984      0.222122
     8   Atom       -0.049554      0.301933      0.119605
     9   Atom        0.144173      0.066301     -0.122243
    10   Atom       -0.002457      0.056108      0.070209
    11   Atom        0.012881      0.006172     -0.042852
    12   Atom       -0.075905     -0.007337     -0.058787
    13   Atom       -0.002091      0.012199      0.176578
    14   Atom       -0.013564     -0.055165     -0.033642
    15   Atom       -0.035809     -0.005411      0.003923
    16   Atom        0.006719     -0.021168      0.127702
    17   Atom       -0.046111      0.118873      0.186694
    18   Atom        0.002803      0.008555     -0.078770
    19   Atom       -0.234070     -0.136576     -0.040803
    20   Atom       -0.067074      0.040780      0.218908
    21   Atom       -0.008519     -0.012014     -0.124721
    22   Atom        0.045539     -0.000846     -0.064317
    23   Atom       -0.012126     -0.094662     -0.077288
    24   Atom        0.250036      0.133431     -0.128591
    25   Atom       -0.068531      0.032958      0.209001
    26   Atom        0.116117      0.814515      0.792036
    27   Atom        0.250778      0.026042     -0.045887
    28   Atom        0.022229      0.051968     -0.107996
    29   Atom       -0.182240      0.135777      0.132229
    30   Atom        0.008922     -0.192216      0.000602
    31   Atom       -0.007383      0.176866     -0.115786
    32   Atom        1.224150      0.160734      0.196288
    33   Atom       -0.105988     -0.383132      0.210081
    34   Atom        0.245052     -0.132013      0.180023
    35   Atom       -0.199896      0.002511     -0.021043
    36   Atom        0.061844      0.116116     -0.192843
    37   Atom        0.049051     -0.096686      0.200145
    38   Atom        0.050707     -0.016118      0.002207
 --------------------------------------------------------


 ---------------------------------------------------------------------------------
              Nuclear Quadrupole Coupling Constant in Principal Axis System
 ---------------------------------------------------------------------------------

       Atom             a.u.   MegaHertz   Gauss  10(-4) cm-1        Axes

              Baa    -0.5634     2.706     0.965     0.903 -0.5887  0.7151  0.3770
     7 N(14)  Bbb    -0.4624     2.221     0.792     0.741 -0.3535 -0.6471  0.6755
              Bcc     1.0257    -4.926    -1.758    -1.643  0.7270  0.2644  0.6337
 
              Baa    -0.0808     0.388     0.138     0.129 -0.3263  0.4821  0.8131
    22 N(14)  Bbb    -0.0235     0.113     0.040     0.038  0.8854 -0.1454  0.4415
              Bcc     0.1042    -0.501    -0.179    -0.167  0.3311  0.8640 -0.3794
 
              Baa    -0.5077     2.438     0.870     0.813  0.7560  0.6435  0.1200
    33 N(14)  Bbb    -0.4281     2.056     0.734     0.686 -0.5855  0.7467 -0.3158
              Bcc     0.9358    -4.494    -1.604    -1.499 -0.2928  0.1684  0.9412
 

 ---------------------------------------------------------------------------------

 No NMR shielding tensors so no spin-rotation constants.
 Leave Link  601 at Mon May 16 02:03:37 2016, MaxMem=  1073741824 cpu:         2.4
 FitSet:  NAtFit=    38 NAtPot=    38 NAtFrz=     0 MDM=    42 TotChg=   1.00000
 Breneman (CHELPG) radii used.
 Atom Element Radius
    1     6    1.50
    2     1    1.45
    3     1    1.45
    4     1    1.45
    5     6    1.50
    6     8    1.70
    7     7    1.70
    8     1    1.45
    9     6    1.50
   10     1    1.45
   11     6    1.50
   12     1    1.45
   13     1    1.45
   14     6    1.50
   15     1    1.45
   16     1    1.45
   17     6    1.50
   18     1    1.45
   19     6    1.50
   20     1    1.45
   21     1    1.45
   22     7    1.70
   23     1    1.45
   24     1    1.45
   25     1    1.45
   26     8    1.70
   27     6    1.50
   28     1    1.45
   29     1    1.45
   30     1    1.45
   31     6    1.50
   32     8    1.70
   33     7    1.70
   34     1    1.45
   35     6    1.50
   36     1    1.45
   37     1    1.45
   38     1    1.45
 Generate Potential Derived Charges using the Breneman model, NDens= 1.
 Grid spacing= 0.300 Box extension= 2.800
 NStep X,Y,Z=   55     46     30   Total possible points=       75900
 Number of Points to Fit=   20780
 Approximate Molecular Volume= 1381.77 A**3

 **********************************************************************

            Electrostatic Properties Using The SCF Density

 **********************************************************************

       Atomic Center    1 is at  -3.141908  3.115017  0.599316
       Atomic Center    2 is at  -4.148442  2.783979  0.366642
       Atomic Center    3 is at  -3.028164  3.105206  1.678709
       Atomic Center    4 is at  -2.987970  4.114760  0.223920
       Atomic Center    5 is at  -2.143034  2.178299 -0.040202
       Atomic Center    6 is at  -1.332974  2.533375 -0.851419
       Atomic Center    7 is at  -2.232864  0.872118  0.351831
       Atomic Center    8 is at  -2.757749  0.660639  1.172013
       Atomic Center    9 is at  -1.260917 -0.097740 -0.115434
       Atomic Center   10 is at  -1.133670  0.094749 -1.174450
       Atomic Center   11 is at   0.105861  0.052335  0.568767
       Atomic Center   12 is at   0.278201  1.111514  0.699418
       Atomic Center   13 is at   0.072447 -0.400147  1.554468
       Atomic Center   14 is at   1.247376 -0.568712 -0.243872
       Atomic Center   15 is at   1.123348 -1.644177 -0.231456
       Atomic Center   16 is at   1.193936 -0.254923 -1.282502
       Atomic Center   17 is at   2.649033 -0.204716  0.263494
       Atomic Center   18 is at   2.620546  0.005767  1.333305
       Atomic Center   19 is at   3.597493 -1.372165  0.007473
       Atomic Center   20 is at   3.401268 -2.221711  0.643415
       Atomic Center   21 is at   3.561329 -1.670994 -1.029619
       Atomic Center   22 is at   5.008322 -0.905060  0.261842
       Atomic Center   23 is at   5.186754 -0.762033  1.245481
       Atomic Center   24 is at   5.702563 -1.548888 -0.088001
       Atomic Center   25 is at   5.113339 -0.008325 -0.201261
       Atomic Center   26 is at   3.263524  0.866092 -0.403317
       Atomic Center   27 is at   2.662704  2.144209 -0.306218
       Atomic Center   28 is at   2.532215  2.425867  0.733534
       Atomic Center   29 is at   3.339516  2.836696 -0.782472
       Atomic Center   30 is at   1.708999  2.171087 -0.813845
       Atomic Center   31 is at  -1.807292 -1.524104  0.006398
       Atomic Center   32 is at  -1.081269 -2.438219  0.303049
       Atomic Center   33 is at  -3.112732 -1.679689 -0.257271
       Atomic Center   34 is at  -3.622829 -0.897780 -0.598698
       Atomic Center   35 is at  -3.728394 -2.993587 -0.305305
       Atomic Center   36 is at  -3.406893 -3.552703 -1.176050
       Atomic Center   37 is at  -3.466073 -3.553378  0.580067
       Atomic Center   38 is at  -4.801541 -2.869791 -0.340447
      ESP Fit Center   39 is at  -7.349489 -3.769309 -0.851896
      ESP Fit Center   40 is at  -7.349489 -3.769309 -0.551896
      ESP Fit Center   41 is at  -7.349489 -3.769309 -0.251896
      ESP Fit Center   42 is at  -7.349489 -3.769309  0.048104
      ESP Fit Center   43 is at  -7.349489 -3.769309  0.348104
      ESP Fit Center   44 is at  -7.349489 -3.469309 -1.151896
      ESP Fit Center   45 is at  -7.349489 -3.469309 -0.851896
      ESP Fit Center   46 is at  -7.349489 -3.469309 -0.551896
      ESP Fit Center   47 is at  -7.349489 -3.469309 -0.251896
      ESP Fit Center   48 is at  -7.349489 -3.469309  0.048104
      ESP Fit Center   49 is at  -7.349489 -3.469309  0.348104
      ESP Fit Center   50 is at  -7.349489 -3.469309  0.648104
      ESP Fit Center   51 is at  -7.349489 -3.169309 -1.451896
      ESP Fit Center   52 is at  -7.349489 -3.169309 -1.151896
      ESP Fit Center   53 is at  -7.349489 -3.169309 -0.851896
      ESP Fit Center   54 is at  -7.349489 -3.169309 -0.551896
      ESP Fit Center   55 is at  -7.349489 -3.169309 -0.251896
      ESP Fit Center   56 is at  -7.349489 -3.169309  0.048104
      ESP Fit Center   57 is at  -7.349489 -3.169309  0.348104
      ESP Fit Center   58 is at  -7.349489 -3.169309  0.648104
      ESP Fit Center   59 is at  -7.349489 -2.869309 -1.451896
      ESP Fit Center   60 is at  -7.349489 -2.869309 -1.151896
      ESP Fit Center   61 is at  -7.349489 -2.869309 -0.851896
      ESP Fit Center   62 is at  -7.349489 -2.869309 -0.551896
      ESP Fit Center   63 is at  -7.349489 -2.869309 -0.251896
      ESP Fit Center   64 is at  -7.349489 -2.869309  0.048104
      ESP Fit Center   65 is at  -7.349489 -2.869309  0.348104
      ESP Fit Center   66 is at  -7.349489 -2.869309  0.648104
      ESP Fit Center   67 is at  -7.349489 -2.569309 -1.451896
      ESP Fit Center   68 is at  -7.349489 -2.569309 -1.151896
      ESP Fit Center   69 is at  -7.349489 -2.569309 -0.851896
      ESP Fit Center   70 is at  -7.349489 -2.569309 -0.551896
      ESP Fit Center   71 is at  -7.349489 -2.569309 -0.251896
      ESP Fit Center   72 is at  -7.349489 -2.569309  0.048104
      ESP Fit Center   73 is at  -7.349489 -2.569309  0.348104
      ESP Fit Center   74 is at  -7.349489 -2.569309  0.648104
      ESP Fit Center   75 is at  -7.349489 -2.269309 -1.151896
      ESP Fit Center   76 is at  -7.349489 -2.269309 -0.851896
      ESP Fit Center   77 is at  -7.349489 -2.269309 -0.551896
      ESP Fit Center   78 is at  -7.349489 -2.269309 -0.251896
      ESP Fit Center   79 is at  -7.349489 -2.269309  0.048104
      ESP Fit Center   80 is at  -7.349489 -2.269309  0.348104
      ESP Fit Center   81 is at  -7.349489 -2.269309  0.648104
      ESP Fit Center   82 is at  -7.349489 -1.969309 -0.851896
      ESP Fit Center   83 is at  -7.349489 -1.969309 -0.551896
      ESP Fit Center   84 is at  -7.349489 -1.969309 -0.251896
      ESP Fit Center   85 is at  -7.349489 -1.969309  0.048104
      ESP Fit Center   86 is at  -7.349489 -1.969309  0.348104
      ESP Fit Center   87 is at  -7.049489 -4.369309 -0.851896
      ESP Fit Center   88 is at  -7.049489 -4.369309 -0.551896
      ESP Fit Center   89 is at  -7.049489 -4.369309 -0.251896
      ESP Fit Center   90 is at  -7.049489 -4.369309  0.048104
      ESP Fit Center   91 is at  -7.049489 -4.369309  0.348104
      ESP Fit Center   92 is at  -7.049489 -4.069309 -1.451896
      ESP Fit Center   93 is at  -7.049489 -4.069309 -1.151896
      ESP Fit Center   94 is at  -7.049489 -4.069309 -0.851896
      ESP Fit Center   95 is at  -7.049489 -4.069309 -0.551896
      ESP Fit Center   96 is at  -7.049489 -4.069309 -0.251896
      ESP Fit Center   97 is at  -7.049489 -4.069309  0.048104
      ESP Fit Center   98 is at  -7.049489 -4.069309  0.348104
      ESP Fit Center   99 is at  -7.049489 -4.069309  0.648104
      ESP Fit Center  100 is at  -7.049489 -3.769309 -1.451896
      ESP Fit Center  101 is at  -7.049489 -3.769309 -1.151896
      ESP Fit Center  102 is at  -7.049489 -3.769309 -0.851896
      ESP Fit Center  103 is at  -7.049489 -3.769309 -0.551896
      ESP Fit Center  104 is at  -7.049489 -3.769309 -0.251896
      ESP Fit Center  105 is at  -7.049489 -3.769309  0.048104
      ESP Fit Center  106 is at  -7.049489 -3.769309  0.348104
      ESP Fit Center  107 is at  -7.049489 -3.769309  0.648104
      ESP Fit Center  108 is at  -7.049489 -3.769309  0.948104
      ESP Fit Center  109 is at  -7.049489 -3.469309 -1.751896
      ESP Fit Center  110 is at  -7.049489 -3.469309 -1.451896
      ESP Fit Center  111 is at  -7.049489 -3.469309 -1.151896
      ESP Fit Center  112 is at  -7.049489 -3.469309 -0.851896
      ESP Fit Center  113 is at  -7.049489 -3.469309 -0.551896
      ESP Fit Center  114 is at  -7.049489 -3.469309 -0.251896
      ESP Fit Center  115 is at  -7.049489 -3.469309  0.048104
      ESP Fit Center  116 is at  -7.049489 -3.469309  0.348104
      ESP Fit Center  117 is at  -7.049489 -3.469309  0.648104
      ESP Fit Center  118 is at  -7.049489 -3.469309  0.948104
      ESP Fit Center  119 is at  -7.049489 -3.169309 -1.751896
      ESP Fit Center  120 is at  -7.049489 -3.169309 -1.451896
      ESP Fit Center  121 is at  -7.049489 -3.169309 -1.151896
      ESP Fit Center  122 is at  -7.049489 -3.169309 -0.851896
[...]
 **** Fit       0.141196
 **** Fit       0.132394
 **** Fit       0.137640
 **** Fit       0.147323
 **** Fit       0.157505
 **** Fit       0.167722
 **** Fit       0.177234
 **** Fit       0.185101
 **** Fit       0.190435
 **** Fit       0.192792
 **** Fit       0.192400
 **** Fit       0.189941
 **** Fit       0.186028
 **** Fit       0.180872
 **** Fit       0.174408
 **** Fit       0.166679
 **** Fit       0.158025
 **** Fit       0.148965
 **** Fit       0.139989
 **** Fit       0.131437
 **** Fit       0.134778
 **** Fit       0.143824
 **** Fit       0.153230
 **** Fit       0.162537
 **** Fit       0.171067
 **** Fit       0.178029
 **** Fit       0.182757
 **** Fit       0.184978
 **** Fit       0.184905
 **** Fit       0.183028
 **** Fit       0.179755
 **** Fit       0.175218
 **** Fit       0.169380
 **** Fit       0.162315
 **** Fit       0.154342
 **** Fit       0.145931
 **** Fit       0.137528
 **** Fit       0.129455
 **** Fit       0.131259
 **** Fit       0.139623
 **** Fit       0.148256
 **** Fit       0.156735
 **** Fit       0.164453
 **** Fit       0.170717
 **** Fit       0.174960
 **** Fit       0.176968
 **** Fit       0.176934
 **** Fit       0.175263
 **** Fit       0.172291
 **** Fit       0.168149
 **** Fit       0.162850
 **** Fit       0.156481
 **** Fit       0.149306
 **** Fit       0.141702
 **** Fit       0.134043
 **** Fit       0.126611
 **** Fit       0.127203
 **** Fit       0.134826
 **** Fit       0.142645
 **** Fit       0.150283
 **** Fit       0.157207
 **** Fit       0.162816
 **** Fit       0.166615
 **** Fit       0.168411
 **** Fit       0.168355
 **** Fit       0.166790
 **** Fit       0.164024
 **** Fit       0.160215
 **** Fit       0.155426
 **** Fit       0.149755
 **** Fit       0.143407
 **** Fit       0.136668
 **** Fit       0.129826
 **** Fit       0.122749
 **** Fit       0.129584
 **** Fit       0.136537
 **** Fit       0.143282
 **** Fit       0.149370
 **** Fit       0.154300
 **** Fit       0.157659
 **** Fit       0.159269
 **** Fit       0.159235
 **** Fit       0.157827
 **** Fit       0.155316
 **** Fit       0.151878
 **** Fit       0.147614
 **** Fit       0.142629
 **** Fit       0.137084
 **** Fit       0.131190
 **** Fit       0.124089
 **** Fit       0.130158
 **** Fit       0.135993
 **** Fit       0.141230
 **** Fit       0.145473
 **** Fit       0.148394
 **** Fit       0.149844
 **** Fit       0.149880
 **** Fit       0.148697
 **** Fit       0.146516
 **** Fit       0.143506
 **** Fit       0.139785
 **** Fit       0.135461
 **** Fit       0.130666
 **** Fit       0.123772
 **** Fit       0.128739
 **** Fit       0.133167
 **** Fit       0.136758
 **** Fit       0.139265
 **** Fit       0.140567
 **** Fit       0.140687
 **** Fit       0.139757
 **** Fit       0.137939
 **** Fit       0.135379
 **** Fit       0.121791
 **** Fit       0.125500
 **** Fit       0.128510
 **** Fit       0.130643
 **** Fit       0.131802
 **** Fit       0.131993
 **** Fit       0.131294
 **** Fit       0.129822
 **** Fit       0.120936
 **** Fit       0.122742
 **** Fit       0.123764
 **** Fit       0.123997
 **** Fit       0.123020
 **** Fit       0.123726
 **** Fit       0.123540
 **** Fit       0.122762
 **** Fit       0.126427
 **** Fit       0.129326
 **** Fit       0.131242
 **** Fit       0.132044
 **** Fit       0.131719
 **** Fit       0.130373
 **** Fit       0.128181
 **** Fit       0.124816
 **** Fit       0.129856
 **** Fit       0.134334
 **** Fit       0.137901
 **** Fit       0.140237
 **** Fit       0.141143
 **** Fit       0.140614
 **** Fit       0.138822
 **** Fit       0.136042
 **** Fit       0.132558
 **** Fit       0.124889
 **** Fit       0.131114
 **** Fit       0.137154
 **** Fit       0.142616
 **** Fit       0.147013
 **** Fit       0.149869
 **** Fit       0.150887
 **** Fit       0.150070
 **** Fit       0.147704
 **** Fit       0.144205
 **** Fit       0.139970
 **** Fit       0.135290
 **** Fit       0.123004
 **** Fit       0.129981
 **** Fit       0.137188
 **** Fit       0.144327
 **** Fit       0.150911
 **** Fit       0.156282
 **** Fit       0.159756
 **** Fit       0.160891
 **** Fit       0.159710
 **** Fit       0.156657
 **** Fit       0.152348
 **** Fit       0.147309
 **** Fit       0.141880
 **** Fit       0.136254
 **** Fit       0.126742
 **** Fit       0.134498
 **** Fit       0.142644
 **** Fit       0.150868
 **** Fit       0.158600
 **** Fit       0.165001
 **** Fit       0.169141
 **** Fit       0.170400
 **** Fit       0.168824
 **** Fit       0.165067
 **** Fit       0.159968
 **** Fit       0.154181
 **** Fit       0.148071
 **** Fit       0.141809
 **** Fit       0.135493
 **** Fit       0.129737
 **** Fit       0.138119
 **** Fit       0.147026
 **** Fit       0.156141
 **** Fit       0.164838
 **** Fit       0.172130
 **** Fit       0.176867
 **** Fit       0.178261
 **** Fit       0.176385
 **** Fit       0.172095
 **** Fit       0.166425
 **** Fit       0.160110
 **** Fit       0.153503
 **** Fit       0.146743
 **** Fit       0.139910
 **** Fit       0.133102
 **** Fit       0.131805
 **** Fit       0.140577
 **** Fit       0.149935
 **** Fit       0.159558
 **** Fit       0.168794
 **** Fit       0.176589
 **** Fit       0.181690
 **** Fit       0.183234
 **** Fit       0.181319
 **** Fit       0.176901
 **** Fit       0.171093
 **** Fit       0.164624
 **** Fit       0.157807
 **** Fit       0.150751
 **** Fit       0.143545
 **** Fit       0.136317
 **** Fit       0.129219
 **** Fit       0.132846
 **** Fit       0.141731
 **** Fit       0.151170
 **** Fit       0.160825
 **** Fit       0.170043
 **** Fit       0.177808
 **** Fit       0.182939
 **** Fit       0.184643
 **** Fit       0.183034
 **** Fit       0.179006
 **** Fit       0.173571
 **** Fit       0.167369
 **** Fit       0.160658
 **** Fit       0.153541
 **** Fit       0.146138
 **** Fit       0.138635
 **** Fit       0.131235
 **** Fit       0.132859
 **** Fit       0.141605
 **** Fit       0.150798
 **** Fit       0.160075
 **** Fit       0.168808
 **** Fit       0.176099
 **** Fit       0.180979
 **** Fit       0.182834
 **** Fit       0.181774
 **** Fit       0.178502
 **** Fit       0.173806
 **** Fit       0.168181
 **** Fit       0.161829
 **** Fit       0.154864
 **** Fit       0.147458
 **** Fit       0.139858
 **** Fit       0.132317
 **** Fit       0.131928
 **** Fit       0.140350
 **** Fit       0.149084
 **** Fit       0.157752
 **** Fit       0.165771
 **** Fit       0.172394
 **** Fit       0.176892
 **** Fit       0.178846
 **** Fit       0.178351
 **** Fit       0.175897
 **** Fit       0.172027
 **** Fit       0.167083
 **** Fit       0.161223
 **** Fit       0.154575
 **** Fit       0.147356
 **** Fit       0.139853
 **** Fit       0.132361
 **** Fit       0.130174
 **** Fit       0.138160
 **** Fit       0.146340
 **** Fit       0.154337
 **** Fit       0.161624
 **** Fit       0.167590
 **** Fit       0.171696
 **** Fit       0.173666
 **** Fit       0.173578
 **** Fit       0.171762
 **** Fit       0.168575
 **** Fit       0.164248
 **** Fit       0.158904
 **** Fit       0.152681
 **** Fit       0.145811
 **** Fit       0.138598
 **** Fit       0.131344
 **** Fit       0.135210
 **** Fit       0.142804
 **** Fit       0.150149
 **** Fit       0.156774
 **** Fit       0.162169
 **** Fit       0.165915
 **** Fit       0.167815
 **** Fit       0.167934
 **** Fit       0.166510
 **** Fit       0.163793
 **** Fit       0.159951
 **** Fit       0.155092
 **** Fit       0.149353
 **** Fit       0.142958
 **** Fit       0.136193
 **** Fit       0.129340
 **** Fit       0.131633
 **** Fit       0.138625
 **** Fit       0.145340
 **** Fit       0.151360
 **** Fit       0.156250
 **** Fit       0.159660
 **** Fit       0.161431
 **** Fit       0.161616
 **** Fit       0.160403
 **** Fit       0.157993
 **** Fit       0.154529
 **** Fit       0.150118
 **** Fit       0.144892
 **** Fit       0.139050
 **** Fit       0.132838
 **** Fit       0.126505
 **** Fit       0.127549
 **** Fit       0.133915
 **** Fit       0.139996
 **** Fit       0.145427
 **** Fit       0.149832
 **** Fit       0.152913
 **** Fit       0.154530
 **** Fit       0.154722
 **** Fit       0.153642
 **** Fit       0.151466
 **** Fit       0.148333
 **** Fit       0.144352
 **** Fit       0.139649
 **** Fit       0.134393
 **** Fit       0.128787
 **** Fit       0.128805
 **** Fit       0.134236
 **** Fit       0.139070
 **** Fit       0.142989
 **** Fit       0.145741
 **** Fit       0.147202
 **** Fit       0.147394
 **** Fit       0.146440
 **** Fit       0.144494
 **** Fit       0.141688
 **** Fit       0.138136
 **** Fit       0.133954
 **** Fit       0.129286
 **** Fit       0.123458
 **** Fit       0.128238
 **** Fit       0.132476
 **** Fit       0.135913
 **** Fit       0.138340
 **** Fit       0.139652
 **** Fit       0.139856
 **** Fit       0.139045
 **** Fit       0.137345
 **** Fit       0.122208
 **** Fit       0.125876
 **** Fit       0.128851
 **** Fit       0.130969
 **** Fit       0.132142
 **** Fit       0.132365
 **** Fit       0.131705
 **** Fit       0.122033
 **** Fit       0.123867
 **** Fit       0.124909
 **** Fit       0.121991
 **** Fit       0.123612
 **** Fit       0.124331
 **** Fit       0.124137
 **** Fit       0.122367
 **** Fit       0.126023
 **** Fit       0.128918
 **** Fit       0.130836
 **** Fit       0.131647
 **** Fit       0.131339
 **** Fit       0.130014
 **** Fit       0.127848
 **** Fit       0.123400
 **** Fit       0.128265
 **** Fit       0.132579
 **** Fit       0.136016
 **** Fit       0.138280
 **** Fit       0.139190
 **** Fit       0.138737
 **** Fit       0.137077
 **** Fit       0.134457
 **** Fit       0.131139
 **** Fit       0.122508
 **** Fit       0.128323
 **** Fit       0.133915
 **** Fit       0.138934
 **** Fit       0.142963
 **** Fit       0.145608
 **** Fit       0.146624
 **** Fit       0.146008
 **** Fit       0.143983
 **** Fit       0.140887
 **** Fit       0.137052
 **** Fit       0.132738
 **** Fit       0.126230
 **** Fit       0.132680
 **** Fit       0.138960
 **** Fit       0.144663
 **** Fit       0.149278
 **** Fit       0.152305
 **** Fit       0.153434
 **** Fit       0.152667
 **** Fit       0.150303
 **** Fit       0.146775
 **** Fit       0.142480
 **** Fit       0.137706
 **** Fit       0.122413
 **** Fit       0.129207
 **** Fit       0.136168
 **** Fit       0.143003
 **** Fit       0.149263
 **** Fit       0.154365
 **** Fit       0.157723
 **** Fit       0.158969
 **** Fit       0.158115
 **** Fit       0.155525
 **** Fit       0.151702
 **** Fit       0.147087
 **** Fit       0.141978
 **** Fit       0.136561
 **** Fit       0.124176
 **** Fit       0.131255
 **** Fit       0.138530
 **** Fit       0.145698
 **** Fit       0.152287
 **** Fit       0.157680
 **** Fit       0.161256
 **** Fit       0.162621
 **** Fit       0.161797
 **** Fit       0.159174
 **** Fit       0.155279
 **** Fit       0.150554
 **** Fit       0.145289
 **** Fit       0.139662
 **** Fit       0.133810
 **** Fit       0.125093
 **** Fit       0.132273
 **** Fit       0.139634
 **** Fit       0.146868
 **** Fit       0.153505
 **** Fit       0.158944
 **** Fit       0.162588
 **** Fit       0.164067
 **** Fit       0.163407
 **** Fit       0.160973
 **** Fit       0.157253
 **** Fit       0.152648
 **** Fit       0.147422
 **** Fit       0.141747
 **** Fit       0.135772
 **** Fit       0.132261
 **** Fit       0.139499
 **** Fit       0.146559
 **** Fit       0.152995
 **** Fit       0.158261
 **** Fit       0.161837
 **** Fit       0.163411
 **** Fit       0.163006
 **** Fit       0.160925
 **** Fit       0.157566
 **** Fit       0.153262
 **** Fit       0.148239
 **** Fit       0.142667
 **** Fit       0.136710
 **** Fit       0.130548
 **** Fit       0.131308
 **** Fit       0.138266
 **** Fit       0.144989
 **** Fit       0.151065
 **** Fit       0.156025
 **** Fit       0.159442
 **** Fit       0.161074
 **** Fit       0.160936
 **** Fit       0.159255
 **** Fit       0.156329
 **** Fit       0.152416
 **** Fit       0.147703
 **** Fit       0.142353
 **** Fit       0.136545
 **** Fit       0.130477
 **** Fit       0.129541
 **** Fit       0.136126
 **** Fit       0.142429
 **** Fit       0.148081
 **** Fit       0.152684
 **** Fit       0.155897
 **** Fit       0.157535
 **** Fit       0.157607
 **** Fit       0.156274
 **** Fit       0.153752
 **** Fit       0.150234
 **** Fit       0.145876
 **** Fit       0.140832
 **** Fit       0.135284
 **** Fit       0.129434
 **** Fit       0.133256
 **** Fit       0.139109
 **** Fit       0.144325
 **** Fit       0.148567
 **** Fit       0.151557
 **** Fit       0.153149
 **** Fit       0.153346
 **** Fit       0.152267
 **** Fit       0.150071
 **** Fit       0.146908
 **** Fit       0.142910
 **** Fit       0.138223
 **** Fit       0.133019
 **** Fit       0.135188
 **** Fit       0.139972
 **** Fit       0.143859
 **** Fit       0.146616
 **** Fit       0.148121
 **** Fit       0.148374
 **** Fit       0.147465
 **** Fit       0.145520
 **** Fit       0.142666
 **** Fit       0.139022
 **** Fit       0.134719
 **** Fit       0.129915
 **** Fit       0.130789
 **** Fit       0.135140
 **** Fit       0.138673
 **** Fit       0.141189
 **** Fit       0.142583
 **** Fit       0.142849
 **** Fit       0.142061
 **** Fit       0.140326
 **** Fit       0.137753
 **** Fit       0.134454
 **** Fit       0.129946
 **** Fit       0.133124
 **** Fit       0.135396
 **** Fit       0.136668
 **** Fit       0.136933
 **** Fit       0.136248
 **** Fit       0.127362
 **** Fit       0.129391
 **** Fit       0.130542
 **** Fit       0.130804
 **** Fit       0.122314
 **** Fit       0.123033
 **** Fit       0.123605
 **** Fit       0.126335
 **** Fit       0.128159
 **** Fit       0.128962
 **** Fit       0.128729
 **** Fit       0.127547
 **** Fit       0.124662
 **** Fit       0.128569
 **** Fit       0.131678
 **** Fit       0.133751
 **** Fit       0.134642
 **** Fit       0.134340
 **** Fit       0.132958
 **** Fit       0.130688
 **** Fit       0.123742
 **** Fit       0.128629
 **** Fit       0.132965
 **** Fit       0.136434
 **** Fit       0.138748
 **** Fit       0.139732
 **** Fit       0.139375
 **** Fit       0.137822
 **** Fit       0.135304
 **** Fit       0.132067
 **** Fit       0.126552
 **** Fit       0.131801
 **** Fit       0.136485
 **** Fit       0.140249
 **** Fit       0.142770
 **** Fit       0.143848
 **** Fit       0.143474
 **** Fit       0.141816
 **** Fit       0.139134
 **** Fit       0.135695
 **** Fit       0.122759
 **** Fit       0.128488
 **** Fit       0.133965
 **** Fit       0.138866
 **** Fit       0.142820
 **** Fit       0.145486
 **** Fit       0.146655
 **** Fit       0.146320
 **** Fit       0.144654
 **** Fit       0.141928
 **** Fit       0.138409
 **** Fit       0.134318
 **** Fit       0.129459
 **** Fit       0.135006
 **** Fit       0.139970
 **** Fit       0.143985
 **** Fit       0.146719
 **** Fit       0.147970
 **** Fit       0.147730
 **** Fit       0.146163
 **** Fit       0.143520
 **** Fit       0.140054
 **** Fit       0.135969
 **** Fit       0.129461
 **** Fit       0.134932
 **** Fit       0.139815
 **** Fit       0.143771
 **** Fit       0.146496
 **** Fit       0.147810
 **** Fit       0.147703
 **** Fit       0.146314
 **** Fit       0.143858
 **** Fit       0.140553
 **** Fit       0.136585
 **** Fit       0.128571
 **** Fit       0.133851
 **** Fit       0.138547
 **** Fit       0.142353
 **** Fit       0.145008
 **** Fit       0.146359
 **** Fit       0.146390
 **** Fit       0.145211
 **** Fit       0.142994
 **** Fit       0.139919
 **** Fit       0.136147
 **** Fit       0.131922
 **** Fit       0.136364
 **** Fit       0.139968
 **** Fit       0.142510
 **** Fit       0.143862
 **** Fit       0.144008
 **** Fit       0.143029
 **** Fit       0.141056
 **** Fit       0.138234
 **** Fit       0.134704
 **** Fit       0.133457
 **** Fit       0.136829
 **** Fit       0.139230
 **** Fit       0.140550
 **** Fit       0.140772
 **** Fit       0.139956
 **** Fit       0.122028
 **** Fit       0.123690
 **** Fit       0.124464
 **** Fit       0.124336
 **** Fit       0.123030
 **** Fit       0.125722
 **** Fit       0.127546
 **** Fit       0.128393
 **** Fit       0.128250
 **** Fit       0.127187
 **** Fit       0.122184
 **** Fit       0.125798
 **** Fit       0.128683
 **** Fit       0.130646
 **** Fit       0.131566
 **** Fit       0.131428
 **** Fit       0.130314
 **** Fit       0.128367
 **** Fit       0.123947
 **** Fit       0.127713
 **** Fit       0.130729
 **** Fit       0.132793
 **** Fit       0.133782
 **** Fit       0.133677
 **** Fit       0.132563
 **** Fit       0.130586
 **** Fit       0.124857
 **** Fit       0.128682
 **** Fit       0.131755
 **** Fit       0.133876
 **** Fit       0.134923
 **** Fit       0.134878
 **** Fit       0.133818
 **** Fit       0.131883
 **** Fit       0.128701
 **** Fit       0.131758
 **** Fit       0.133890
 **** Fit       0.134981
 **** Fit       0.135011
 **** Fit       0.134048
 **** Fit       0.132214
 **** Fit       0.127840
 **** Fit       0.130822
 **** Fit       0.132922
 **** Fit       0.134037
 **** Fit       0.134144
 **** Fit       0.133299
 **** Fit       0.131110
 **** Fit       0.132225
 -----------------------------------------------------------------
 Leave Link  602 at Mon May 16 02:03:39 2016, MaxMem=  1073741824 cpu:        12.4

 Test job not archived.
 1\1\GINC-E08\SP\RHF\6-31G(d)\C10H22N3O3(1+)\WISE\16-May-2016\0\\# HF/6
 -31G* scf=tight iop(6/33=2) pop=chelpg\\Title Card Required\\1,1\C\H,1
 ,1.08481982\H,1,1.08541384,2,107.924561\H,1,1.07893704,2,109.90800938,
 3,-119.77253803,0\C,1,1.51134812,4,109.43732042,3,-121.15363572,0\O,5,
 1.20014549,1,123.28078098,4,-0.96997702,0\N,5,1.36669971,1,115.3107187
 9,6,-178.96383152,0\H,7,0.99645679,5,118.26551743,1,-15.47461728,0\C,7
 ,1.45039377,5,120.17338659,1,-175.20337421,0\H,9,1.08386286,7,105.9439
 6175,5,-44.21449922,0\C,9,1.53581757,7,112.79929115,5,74.06071019,0\H,
 11,1.08103234,9,106.94525837,7,-37.43601186,0\H,11,1.08510963,9,109.66
 576265,7,79.05271111,0\C,11,1.5326898,9,112.76832559,7,-158.50154812,0
 \H,14,1.08266434,11,108.12586017,9,-68.98164689,0\H,14,1.08631103,11,1
 10.6861388,9,47.91124238,0\C,14,1.53445616,11,114.13519068,9,168.69837
 056,0\H,17,1.09069252,14,110.2574192,11,27.51836164,0\C,17,1.52579825,
 14,109.31941908,11,147.54554463,0\H,19,1.07919177,17,112.98058627,14,-
 70.70012867,0\H,19,1.07989186,17,110.61323943,14,53.10689404,0\N,19,1.
 50775633,17,108.43961452,14,169.19328006,0\H,22,1.00987147,19,111.9335
 3488,17,71.43858323,0\H,22,1.00939347,19,112.79850359,17,-166.72089595
 ,0\H,22,1.01470519,19,107.0753486,17,-46.15770042,0\O,17,1.40316281,14
 ,115.0828959,11,-96.63932728,0\C,26,1.41562564,17,118.06981527,14,64.0
 0118564,0\H,27,1.08510038,26,110.55572149,17,54.89257652,0\H,27,1.0790
 8786,26,106.43491854,17,173.57941667,0\H,27,1.08072236,26,111.39371819
 ,17,-67.38617479,0\C,9,1.53228031,7,110.9711372,5,-159.47808085,0\O,31
 ,1.20445732,9,120.73902759,7,-143.98310381,0\N,31,1.34085854,9,116.074
 25883,7,37.11845132,0\H,33,0.99405887,31,118.41542244,9,5.98419231,0\C
 ,33,1.45178336,31,121.62722842,9,173.9511252,0\H,35,1.08359146,33,111.
 57647261,31,-70.53816881,0\H,35,1.07984344,33,109.81710156,31,49.95743
 072,0\H,35,1.08083528,33,108.57061214,31,169.16692877,0\\Version=AM64L
 -G09RevD.01\State=1-A\HF=-779.2430687\RMSD=8.927e-09\Dipole=0.2107004,
 -2.5291103,-4.8526966\Quadrupole=-29.7297377,-11.1629018,40.8926395,11
 .2991539,8.9227641,35.1023265\PG=C01 [X(C10H22N3O3)]\\@


 THE PROGRESS OF RIVERS TO THE SEA IS NOT AS RAPID
 AS THAT OF MAN TO ERROR.
                                              -- VOLTAIRE
 Job cpu time:       0 days  0 hours  4 minutes 11.8 seconds.
 File lengths (MBytes):  RWF=     31 Int=      0 D2E=      0 Chk=      4 Scr=      1
 Normal termination of Gaussian 09 at Mon May 16 02:03:39 2016.
